
     Program BANDS v.7.4.1 starts on 26Feb2026 at 11:54:33 

     This program is part of the open-source Quantum ESPRESSO suite
     for quantum simulation of materials; please cite
         "P. Giannozzi et al., J. Phys.:Condens. Matter 21 395502 (2009);
         "P. Giannozzi et al., J. Phys.:Condens. Matter 29 465901 (2017);
         "P. Giannozzi et al., J. Chem. Phys. 152 154105 (2020);
          URL http://www.quantum-espresso.org", 
     in publications or presentations arising from this work. More details at
     http://www.quantum-espresso.org/quote

     Parallel version (MPI), running on   128 processors

     MPI processes distributed on     1 nodes
     R & G space division:  proc/nbgrp/npool/nimage =     128
     226973 MiB available memory on the printing compute node when the environment starts


     Reading xml data from directory:

     ./out/gr_300K.save/

     IMPORTANT: XC functional enforced from input :
     Exchange-correlation= PBE
                           (   1   4   3   4   0   0   0)
     Any further DFT definition will be discarded
     Please, verify this is what you really want


     Parallelization info
     --------------------
     sticks:   dense  smooth     PW     G-vecs:    dense   smooth      PW
     Min           6       6      1                 1308     1308     157
     Max           7       7      2                 1397     1397     228
     Sum         889     889    253               174787   174787   27099

     Using Slab Decomposition

 ----2D----2D----2D----2D----2D----2D----2D----2D----2D----2D----2D----2D
  The code is running with the 2D cutoff
  Please refer to:
  Sohier, T., Calandra, M., & Mauri, F. (2017), 
  Density functional perturbation theory for gated two-dimensional heterostructures:
  Theoretical developments and application to flexural phonons in graphene.
  Physical Review B, 96(7), 75448. https://doi.org/10.1103/PhysRevB.96.075448
 ----2D----2D----2D----2D----2D----2D----2D----2D----2D----2D----2D----2D
     Reading collected, re-writing distributed wavefunctions
     high-symmetry point:  0.0000 0.0000 0.0000   x coordinate   0.0000
     high-symmetry point:  0.6667 0.0000 0.0000   x coordinate   0.6667
     high-symmetry point:  0.5000 0.2887 0.0000   x coordinate   1.0000
     high-symmetry point:  0.0000 0.0000 0.0000   x coordinate   1.5774

     Plottable bands (eV) written to file gr.bands.gnu
     Bands written to file gr.bands

 **************************************************************************

                    xk=(   0.00000,   0.00000,   0.00000  )

     point group D_6h(6/mmm)
     there are 12 classes
     the character table:

       E     2C6   2C3   C2    3C2'  3C2'' i     2S3   2S6   s_h   3s_d  3s_v 
A_1g   1.00  1.00  1.00  1.00  1.00  1.00  1.00  1.00  1.00  1.00  1.00  1.00
A_2g   1.00  1.00  1.00  1.00 -1.00 -1.00  1.00  1.00  1.00  1.00 -1.00 -1.00
B_1g   1.00 -1.00  1.00 -1.00  1.00 -1.00  1.00 -1.00  1.00 -1.00  1.00 -1.00
B_2g   1.00 -1.00  1.00 -1.00 -1.00  1.00  1.00 -1.00  1.00 -1.00 -1.00  1.00
E_1g   2.00  1.00 -1.00 -2.00  0.00  0.00  2.00  1.00 -1.00 -2.00  0.00  0.00
E_2g   2.00 -1.00 -1.00  2.00  0.00  0.00  2.00 -1.00 -1.00  2.00  0.00  0.00
A_1u   1.00  1.00  1.00  1.00  1.00  1.00 -1.00 -1.00 -1.00 -1.00 -1.00 -1.00
A_2u   1.00  1.00  1.00  1.00 -1.00 -1.00 -1.00 -1.00 -1.00 -1.00  1.00  1.00
B_1u   1.00 -1.00  1.00 -1.00  1.00 -1.00 -1.00  1.00 -1.00  1.00 -1.00  1.00
B_2u   1.00 -1.00  1.00 -1.00 -1.00  1.00 -1.00  1.00 -1.00  1.00  1.00 -1.00
E_1u   2.00  1.00 -1.00 -2.00  0.00  0.00 -2.00 -1.00  1.00  2.00  0.00  0.00
E_2u   2.00 -1.00 -1.00  2.00  0.00  0.00 -2.00  1.00  1.00 -2.00  0.00  0.00

     the symmetry operations in each class and the name of the first element:

     E        1
                                                                 
     2C6      5    6
                                                                 
     2C3      7    8
                                                                 
     C2       2
                                                                 
     3C2'     4   12   11
                                                                 
     3C2''    3    9   10
                                                                 
     i       13
                                                                 
     2S3     17   18
                                                                 
     2S6     19   20
                                                                 
     s_h     14
                                                                 
     3s_d    16   24   23
                                                                 
     3s_v    15   21   22
                                                                 

     Band symmetry, D_6h(6/mmm) point group:

     e(  1 -  1) =    -23.82666  eV     1   --> A_1g           
     e(  2 -  2) =    -11.90497  eV     1   --> A_2u           
     e(  3 -  4) =     -7.27747  eV     2   --> E_2g           
     e(  5 -  5) =     -0.97446  eV     1   --> A_1g           
     e(  6 -  6) =     -0.16511  eV     1   --> A_2u           
     e(  7 -  7) =      0.81467  eV     1   --> A_1g           
     e(  8 -  8) =      1.23416  eV     1   --> A_2u           
     e(  9 -  9) =      2.74475  eV     1   --> A_1g           
     e( 10 - 10) =      3.52949  eV     1   --> A_2u           
     e( 11 - 12) =      4.17022  eV     2   --> E_1u           
     e( 13 - 13) =      5.44884  eV     1   --> A_1g           
     e( 14 - 14) =      6.66345  eV     1   --> A_2u           
     e( 15 - 15) =      7.35582  eV     1   --> B_1g           
     e( 16 - 16) =      8.51544  eV     1   --> B_2u           
     e( 17 - 17) =      8.79523  eV     1   --> A_1g           
     e( 18 - 18) =     10.55222  eV     1   --> A_2u           
     e( 19 - 19) =     12.72331  eV     1   --> A_1g           
     e( 20 - 20) =     15.15546  eV     1   --> A_2u           

 **************************************************************************

 **************************************************************************

                    xk=(   0.01667,   0.00000,   0.00000  )

     point group C_2v (mm2) 
     there are  4 classes
     the character table:

       E     C2    s_v   s_v' 
A_1    1.00  1.00  1.00  1.00
A_2    1.00  1.00 -1.00 -1.00
B_1    1.00 -1.00  1.00 -1.00
B_2    1.00 -1.00 -1.00  1.00

     the symmetry operations in each class and the name of the first element:

     E        1
                                                                 
     C2       2
                                                                 
     s_v      4
                                                                 
     s_v'     3
                                                                 

     Band symmetry, C_2v (mm2)  point group:

     e(  1 -  1) =    -23.82169  eV     1   --> A_1  D_1  S_1  
     e(  2 -  2) =    -11.89902  eV     1   --> B_1  D_3  S_3  
     e(  3 -  3) =     -7.29799  eV     1   --> B_2  D_4  S_4  
     e(  4 -  4) =     -7.28848  eV     1   --> A_1  D_1  S_1  
     e(  5 -  5) =     -0.96773  eV     1   --> A_1  D_1  S_1  
     e(  6 -  6) =     -0.15829  eV     1   --> B_1  D_3  S_3  
     e(  7 -  7) =      0.82153  eV     1   --> A_1  D_1  S_1  
     e(  8 -  8) =      1.24100  eV     1   --> B_1  D_3  S_3  
     e(  9 -  9) =      2.75148  eV     1   --> A_1  D_1  S_1  
     e( 10 - 10) =      3.53626  eV     1   --> B_1  D_3  S_3  
     e( 11 - 11) =      4.17346  eV     1   --> A_1  D_1  S_1  
     e( 12 - 12) =      4.19202  eV     1   --> B_2  D_4  S_4  
     e( 13 - 13) =      5.45581  eV     1   --> A_1  D_1  S_1  
     e( 14 - 14) =      6.67009  eV     1   --> B_1  D_3  S_3  
     e( 15 - 15) =      7.33815  eV     1   --> A_2  D_2  S_2  
     e( 16 - 16) =      8.52387  eV     1   --> B_2  D_4  S_4  
     e( 17 - 17) =      8.80207  eV     1   --> A_1  D_1  S_1  
     e( 18 - 18) =     10.55862  eV     1   --> B_1  D_3  S_3  
     e( 19 - 19) =     12.73010  eV     1   --> A_1  D_1  S_1  
     e( 20 - 20) =     15.16124  eV     1   --> B_1  D_3  S_3  

 **************************************************************************

 **************************************************************************

                    xk=(   0.03333,   0.00000,   0.00000  )

     Band symmetry, C_2v (mm2)  point group:

     e(  1 -  1) =    -23.80679  eV     1   --> A_1  D_1  S_1  
     e(  2 -  2) =    -11.88119  eV     1   --> B_1  D_3  S_3  
     e(  3 -  3) =     -7.35893  eV     1   --> B_2  D_4  S_4  
     e(  4 -  4) =     -7.32142  eV     1   --> A_1  D_1  S_1  
     e(  5 -  5) =     -0.94755  eV     1   --> A_1  D_1  S_1  
     e(  6 -  6) =     -0.13782  eV     1   --> B_1  D_3  S_3  
     e(  7 -  7) =      0.84211  eV     1   --> A_1  D_1  S_1  
     e(  8 -  8) =      1.26151  eV     1   --> B_1  D_3  S_3  
     e(  9 -  9) =      2.77168  eV     1   --> A_1  D_1  S_1  
     e( 10 - 10) =      3.55655  eV     1   --> B_1  D_3  S_3  
     e( 11 - 11) =      4.18330  eV     1   --> A_1  D_1  S_1  
     e( 12 - 12) =      4.25657  eV     1   --> B_2  D_4  S_4  
     e( 13 - 13) =      5.47671  eV     1   --> A_1  D_1  S_1  
     e( 14 - 14) =      6.69001  eV     1   --> B_1  D_3  S_3  
     e( 15 - 15) =      7.28535  eV     1   --> A_2  D_2  S_2  
     e( 16 - 16) =      8.54936  eV     1   --> B_2  D_4  S_4  
     e( 17 - 17) =      8.82258  eV     1   --> A_1  D_1  S_1  
     e( 18 - 18) =     10.57782  eV     1   --> B_1  D_3  S_3  
     e( 19 - 19) =     12.75046  eV     1   --> A_1  D_1  S_1  
     e( 20 - 20) =     15.17853  eV     1   --> B_1  D_3  S_3  

 **************************************************************************

 **************************************************************************

                    xk=(   0.05000,   0.00000,   0.00000  )

     Band symmetry, C_2v (mm2)  point group:

     e(  1 -  1) =    -23.78197  eV     1   --> A_1  D_1  S_1  
     e(  2 -  2) =    -11.85149  eV     1   --> B_1  D_3  S_3  
     e(  3 -  3) =     -7.45858  eV     1   --> B_2  D_4  S_4  
     e(  4 -  4) =     -7.37599  eV     1   --> A_1  D_1  S_1  
     e(  5 -  5) =     -0.91390  eV     1   --> A_1  D_1  S_1  
     e(  6 -  6) =     -0.10372  eV     1   --> B_1  D_3  S_3  
     e(  7 -  7) =      0.87641  eV     1   --> A_1  D_1  S_1  
     e(  8 -  8) =      1.29569  eV     1   --> B_1  D_3  S_3  
     e(  9 -  9) =      2.80535  eV     1   --> A_1  D_1  S_1  
     e( 10 - 10) =      3.59037  eV     1   --> B_1  D_3  S_3  
     e( 11 - 11) =      4.19995  eV     1   --> A_1  D_1  S_1  
     e( 12 - 12) =      4.36137  eV     1   --> B_2  D_4  S_4  
     e( 13 - 13) =      5.51150  eV     1   --> A_1  D_1  S_1  
     e( 14 - 14) =      6.72320  eV     1   --> B_1  D_3  S_3  
     e( 15 - 15) =      7.19805  eV     1   --> A_2  D_2  S_2  
     e( 16 - 16) =      8.59261  eV     1   --> B_2  D_4  S_4  
     e( 17 - 17) =      8.85673  eV     1   --> A_1  D_1  S_1  
     e( 18 - 18) =     10.60978  eV     1   --> B_1  D_3  S_3  
     e( 19 - 19) =     12.78437  eV     1   --> A_1  D_1  S_1  
     e( 20 - 20) =     15.20718  eV     1   --> B_1  D_3  S_3  

 **************************************************************************

 **************************************************************************

                    xk=(   0.06667,   0.00000,   0.00000  )

     Band symmetry, C_2v (mm2)  point group:

     e(  1 -  1) =    -23.74724  eV     1   --> A_1  D_1  S_1  
     e(  2 -  2) =    -11.80994  eV     1   --> B_1  D_3  S_3  
     e(  3 -  3) =     -7.59425  eV     1   --> B_2  D_4  S_4  
     e(  4 -  4) =     -7.45171  eV     1   --> A_1  D_1  S_1  
     e(  5 -  5) =     -0.86680  eV     1   --> A_1  D_1  S_1  
     e(  6 -  6) =     -0.05598  eV     1   --> B_1  D_3  S_3  
     e(  7 -  7) =      0.92444  eV     1   --> A_1  D_1  S_1  
     e(  8 -  8) =      1.34354  eV     1   --> B_1  D_3  S_3  
     e(  9 -  9) =      2.85250  eV     1   --> A_1  D_1  S_1  
     e( 10 - 10) =      3.63770  eV     1   --> B_1  D_3  S_3  
     e( 11 - 11) =      4.22375  eV     1   --> A_1  D_1  S_1  
     e( 12 - 12) =      4.50243  eV     1   --> B_2  D_4  S_4  
     e( 13 - 13) =      5.56012  eV     1   --> A_1  D_1  S_1  
     e( 14 - 14) =      6.76963  eV     1   --> B_1  D_3  S_3  
     e( 15 - 15) =      7.07728  eV     1   --> A_2  D_2  S_2  
     e( 16 - 16) =      8.65473  eV     1   --> B_2  D_4  S_4  
     e( 17 - 17) =      8.90452  eV     1   --> A_1  D_1  S_1  
     e( 18 - 18) =     10.65444  eV     1   --> B_1  D_3  S_3  
     e( 19 - 19) =     12.83180  eV     1   --> A_1  D_1  S_1  
     e( 20 - 20) =     15.24689  eV     1   --> B_1  D_3  S_3  

 **************************************************************************

 **************************************************************************

                    xk=(   0.08333,   0.00000,   0.00000  )

     Band symmetry, C_2v (mm2)  point group:

     e(  1 -  1) =    -23.70260  eV     1   --> A_1  D_1  S_1  
     e(  2 -  2) =    -11.75658  eV     1   --> B_1  D_3  S_3  
     e(  3 -  3) =     -7.76258  eV     1   --> B_2  D_4  S_4  
     e(  4 -  4) =     -7.54794  eV     1   --> A_1  D_1  S_1  
     e(  5 -  5) =     -0.80623  eV     1   --> A_1  D_1  S_1  
     e(  6 -  6) =      0.00540  eV     1   --> B_1  D_3  S_3  
     e(  7 -  7) =      0.98619  eV     1   --> A_1  D_1  S_1  
     e(  8 -  8) =      1.40505  eV     1   --> B_1  D_3  S_3  
     e(  9 -  9) =      2.91314  eV     1   --> A_1  D_1  S_1  
     e( 10 - 10) =      3.69853  eV     1   --> B_1  D_3  S_3  
     e( 11 - 11) =      4.25519  eV     1   --> A_1  D_1  S_1  
     e( 12 - 12) =      4.67455  eV     1   --> B_2  D_4  S_4  
     e( 13 - 13) =      5.62248  eV     1   --> A_1  D_1  S_1  
     e( 14 - 14) =      6.82928  eV     1   --> B_1  D_3  S_3  
     e( 15 - 15) =      6.92444  eV     1   --> A_2  D_2  S_2  
     e( 16 - 16) =      8.73735  eV     1   --> B_2  D_4  S_4  
     e( 17 - 17) =      8.96590  eV     1   --> A_1  D_1  S_1  
     e( 18 - 18) =     10.71172  eV     1   --> B_1  D_3  S_3  
     e( 19 - 19) =     12.89269  eV     1   --> A_1  D_1  S_1  
     e( 20 - 20) =     15.29723  eV     1   --> B_1  D_3  S_3  

 **************************************************************************

 **************************************************************************

                    xk=(   0.10000,   0.00000,   0.00000  )

     Band symmetry, C_2v (mm2)  point group:

     e(  1 -  1) =    -23.64807  eV     1   --> A_1  D_1  S_1  
     e(  2 -  2) =    -11.69144  eV     1   --> B_1  D_3  S_3  
     e(  3 -  3) =     -7.95982  eV     1   --> B_2  D_4  S_4  
     e(  4 -  4) =     -7.66386  eV     1   --> A_1  D_1  S_1  
     e(  5 -  5) =     -0.73219  eV     1   --> A_1  D_1  S_1  
     e(  6 -  6) =      0.08039  eV     1   --> B_1  D_3  S_3  
     e(  7 -  7) =      1.06166  eV     1   --> A_1  D_1  S_1  
     e(  8 -  8) =      1.48022  eV     1   --> B_1  D_3  S_3  
     e(  9 -  9) =      2.98726  eV     1   --> A_1  D_1  S_1  
     e( 10 - 10) =      3.77284  eV     1   --> B_1  D_3  S_3  
     e( 11 - 11) =      4.29477  eV     1   --> A_1  D_1  S_1  
     e( 12 - 12) =      4.87163  eV     1   --> B_2  D_4  S_4  
     e( 13 - 13) =      5.69850  eV     1   --> A_1  D_1  S_1  
     e( 14 - 14) =      6.74124  eV     1   --> A_2  D_2  S_2  
     e( 15 - 15) =      6.90210  eV     1   --> B_1  D_3  S_3  
     e( 16 - 16) =      8.84253  eV     1   --> B_2  D_4  S_4  
     e( 17 - 17) =      9.04082  eV     1   --> A_1  D_1  S_1  
     e( 18 - 18) =     10.78148  eV     1   --> B_1  D_3  S_3  
     e( 19 - 19) =     12.96701  eV     1   --> A_1  D_1  S_1  
     e( 20 - 20) =     15.35750  eV     1   --> B_1  D_3  S_3  

 **************************************************************************

 **************************************************************************

                    xk=(   0.11667,   0.00000,   0.00000  )

     Band symmetry, C_2v (mm2)  point group:

     e(  1 -  1) =    -23.58367  eV     1   --> A_1  D_1  S_1  
     e(  2 -  2) =    -11.61457  eV     1   --> B_1  D_3  S_3  
     e(  3 -  3) =     -8.18211  eV     1   --> B_2  D_4  S_4  
     e(  4 -  4) =     -7.79848  eV     1   --> A_1  D_1  S_1  
     e(  5 -  5) =     -0.64468  eV     1   --> A_1  D_1  S_1  
     e(  6 -  6) =      0.16899  eV     1   --> B_1  D_3  S_3  
     e(  7 -  7) =      1.15087  eV     1   --> A_1  D_1  S_1  
     e(  8 -  8) =      1.56903  eV     1   --> B_1  D_3  S_3  
     e(  9 -  9) =      3.07488  eV     1   --> A_1  D_1  S_1  
     e( 10 - 10) =      3.86062  eV     1   --> B_1  D_3  S_3  
     e( 11 - 11) =      4.34304  eV     1   --> A_1  D_1  S_1  
     e( 12 - 12) =      5.08698  eV     1   --> B_2  D_4  S_4  
     e( 13 - 13) =      5.78811  eV     1   --> A_1  D_1  S_1  
     e( 14 - 14) =      6.52965  eV     1   --> A_2  D_2  S_2  
     e( 15 - 15) =      6.98804  eV     1   --> B_1  D_3  S_3  
     e( 16 - 16) =      8.97273  eV     1   --> B_2  D_4  S_4  
     e( 17 - 17) =      9.12926  eV     1   --> A_1  D_1  S_1  
     e( 18 - 18) =     10.86354  eV     1   --> B_1  D_3  S_3  
     e( 19 - 19) =     13.05469  eV     1   --> A_1  D_1  S_1  
     e( 20 - 20) =     15.42667  eV     1   --> B_1  D_3  S_3  

 **************************************************************************

 **************************************************************************

                    xk=(   0.13333,   0.00000,   0.00000  )

     Band symmetry, C_2v (mm2)  point group:

     e(  1 -  1) =    -23.50942  eV     1   --> A_1  D_1  S_1  
     e(  2 -  2) =    -11.52603  eV     1   --> B_1  D_3  S_3  
     e(  3 -  3) =     -8.42561  eV     1   --> B_2  D_4  S_4  
     e(  4 -  4) =     -7.95074  eV     1   --> A_1  D_1  S_1  
     e(  5 -  5) =     -0.54369  eV     1   --> A_1  D_1  S_1  
     e(  6 -  6) =      0.27118  eV     1   --> B_1  D_3  S_3  
     e(  7 -  7) =      1.25382  eV     1   --> A_1  D_1  S_1  
     e(  8 -  8) =      1.67147  eV     1   --> B_1  D_3  S_3  
     e(  9 -  9) =      3.17600  eV     1   --> A_1  D_1  S_1  
     e( 10 - 10) =      3.96183  eV     1   --> B_1  D_3  S_3  
     e( 11 - 11) =      4.40055  eV     1   --> A_1  D_1  S_1  
     e( 12 - 12) =      5.31363  eV     1   --> B_2  D_4  S_4  
     e( 13 - 13) =      5.89123  eV     1   --> A_1  D_1  S_1  
     e( 14 - 14) =      6.29188  eV     1   --> A_2  D_2  S_2  
     e( 15 - 15) =      7.08704  eV     1   --> B_1  D_3  S_3  
     e( 16 - 16) =      9.13066  eV     1   --> B_2  D_4  S_4  
     e( 17 - 17) =      9.23117  eV     1   --> A_1  D_1  S_1  
     e( 18 - 18) =     10.95769  eV     1   --> B_1  D_3  S_3  
     e( 19 - 19) =     13.15567  eV     1   --> A_1  D_1  S_1  
     e( 20 - 20) =     15.50310  eV     1   --> B_1  D_3  S_3  

 **************************************************************************

 **************************************************************************

                    xk=(   0.15000,   0.00000,   0.00000  )

     Band symmetry, C_2v (mm2)  point group:

     e(  1 -  1) =    -23.42535  eV     1   --> A_1  D_1  S_1  
     e(  2 -  2) =    -11.42590  eV     1   --> B_1  D_3  S_3  
     e(  3 -  3) =     -8.68677  eV     1   --> B_2  D_4  S_4  
     e(  4 -  4) =     -8.11944  eV     1   --> A_1  D_1  S_1  
     e(  5 -  5) =     -0.42924  eV     1   --> A_1  D_1  S_1  
     e(  6 -  6) =      0.38695  eV     1   --> B_1  D_3  S_3  
     e(  7 -  7) =      1.37050  eV     1   --> A_1  D_1  S_1  
     e(  8 -  8) =      1.78753  eV     1   --> B_1  D_3  S_3  
     e(  9 -  9) =      3.29062  eV     1   --> A_1  D_1  S_1  
     e( 10 - 10) =      4.07644  eV     1   --> B_1  D_3  S_3  
     e( 11 - 11) =      4.46779  eV     1   --> A_1  D_1  S_1  
     e( 12 - 12) =      5.54475  eV     1   --> B_2  D_4  S_4  
     e( 13 - 13) =      6.00780  eV     1   --> A_1  D_1  S_1  
     e( 14 - 14) =      6.03020  eV     1   --> A_2  D_2  S_2  
     e( 15 - 15) =      7.19899  eV     1   --> B_1  D_3  S_3  
     e( 16 - 16) =      9.31900  eV     1   --> B_2  D_4  S_4  
     e( 17 - 17) =      9.34650  eV     1   --> A_1  D_1  S_1  
     e( 18 - 18) =     11.06360  eV     1   --> B_1  D_3  S_3  
     e( 19 - 19) =     13.26989  eV     1   --> A_1  D_1  S_1  
     e( 20 - 20) =     15.58424  eV     1   --> B_1  D_3  S_3  

 **************************************************************************

 **************************************************************************

                    xk=(   0.16667,   0.00000,   0.00000  )

     Band symmetry, C_2v (mm2)  point group:

     e(  1 -  1) =    -23.33148  eV     1   --> A_1  D_1  S_1  
     e(  2 -  2) =    -11.31426  eV     1   --> B_1  D_3  S_3  
     e(  3 -  3) =     -8.96228  eV     1   --> B_2  D_4  S_4  
     e(  4 -  4) =     -8.30331  eV     1   --> A_1  D_1  S_1  
     e(  5 -  5) =     -0.30130  eV     1   --> A_1  D_1  S_1  
     e(  6 -  6) =      0.51628  eV     1   --> B_1  D_3  S_3  
     e(  7 -  7) =      1.50092  eV     1   --> A_1  D_1  S_1  
     e(  8 -  8) =      1.91720  eV     1   --> B_1  D_3  S_3  
     e(  9 -  9) =      3.41874  eV     1   --> A_1  D_1  S_1  
     e( 10 - 10) =      4.20441  eV     1   --> B_1  D_3  S_3  
     e( 11 - 11) =      4.54520  eV     1   --> A_1  D_1  S_1  
     e( 12 - 12) =      5.74707  eV     1   --> A_2  D_2  S_2  
     e( 13 - 13) =      5.77407  eV     1   --> B_2  D_4  S_4  
     e( 14 - 14) =      6.13777  eV     1   --> A_1  D_1  S_1  
     e( 15 - 15) =      7.32379  eV     1   --> B_1  D_3  S_3  
     e( 16 - 16) =      9.47520  eV     1   --> A_1  D_1  S_1  
     e( 17 - 17) =      9.54007  eV     1   --> B_2  D_4  S_4  
     e( 18 - 18) =     11.18083  eV     1   --> B_1  D_3  S_3  
     e( 19 - 19) =     13.39729  eV     1   --> A_1  D_1  S_1  
     e( 20 - 20) =     15.66584  eV     1   --> B_1  D_3  S_3  

 **************************************************************************

 **************************************************************************

                    xk=(   0.18333,   0.00000,   0.00000  )

     Band symmetry, C_2v (mm2)  point group:

     e(  1 -  1) =    -23.22785  eV     1   --> A_1  D_1  S_1  
     e(  2 -  2) =    -11.19121  eV     1   --> B_1  D_3  S_3  
     e(  3 -  3) =     -9.24917  eV     1   --> B_2  D_4  S_4  
     e(  4 -  4) =     -8.50102  eV     1   --> A_1  D_1  S_1  
     e(  5 -  5) =     -0.15991  eV     1   --> A_1  D_1  S_1  
     e(  6 -  6) =      0.65914  eV     1   --> B_1  D_3  S_3  
     e(  7 -  7) =      1.64507  eV     1   --> A_1  D_1  S_1  
     e(  8 -  8) =      2.06044  eV     1   --> B_1  D_3  S_3  
     e(  9 -  9) =      3.56035  eV     1   --> A_1  D_1  S_1  
     e( 10 - 10) =      4.34569  eV     1   --> B_1  D_3  S_3  
     e( 11 - 11) =      4.63317  eV     1   --> A_1  D_1  S_1  
     e( 12 - 12) =      5.44494  eV     1   --> A_2  D_2  S_2  
     e( 13 - 13) =      5.99638  eV     1   --> B_2  D_4  S_4  
     e( 14 - 14) =      6.28110  eV     1   --> A_1  D_1  S_1  
     e( 15 - 15) =      7.46128  eV     1   --> B_1  D_3  S_3  
     e( 16 - 16) =      9.61724  eV     1   --> A_1  D_1  S_1  
     e( 17 - 17) =      9.79540  eV     1   --> B_2  D_4  S_4  
     e( 18 - 18) =     11.30877  eV     1   --> B_1  D_3  S_3  
     e( 19 - 19) =     13.53779  eV     1   --> A_1  D_1  S_1  
     e( 20 - 20) =     15.74056  eV     1   --> B_1  D_3  S_3  

 **************************************************************************

 **************************************************************************

                    xk=(   0.20000,   0.00000,   0.00000  )

     Band symmetry, C_2v (mm2)  point group:

     e(  1 -  1) =    -23.11450  eV     1   --> A_1  D_1  S_1  
     e(  2 -  2) =    -11.05685  eV     1   --> B_1  D_3  S_3  
     e(  3 -  3) =     -9.54484  eV     1   --> B_2  D_4  S_4  
     e(  4 -  4) =     -8.71122  eV     1   --> A_1  D_1  S_1  
     e(  5 -  5) =     -0.00506  eV     1   --> A_1  D_1  S_1  
     e(  6 -  6) =      0.81550  eV     1   --> B_1  D_3  S_3  
     e(  7 -  7) =      1.80296  eV     1   --> A_1  D_1  S_1  
     e(  8 -  8) =      2.21723  eV     1   --> B_1  D_3  S_3  
     e(  9 -  9) =      3.71544  eV     1   --> A_1  D_1  S_1  
     e( 10 - 10) =      4.50020  eV     1   --> B_1  D_3  S_3  
     e( 11 - 11) =      4.73200  eV     1   --> A_1  D_1  S_1  
     e( 12 - 12) =      5.12619  eV     1   --> A_2  D_2  S_2  
     e( 13 - 13) =      6.20783  eV     1   --> B_2  D_4  S_4  
     e( 14 - 14) =      6.43775  eV     1   --> A_1  D_1  S_1  
     e( 15 - 15) =      7.61128  eV     1   --> B_1  D_3  S_3  
     e( 16 - 16) =      9.77257  eV     1   --> A_1  D_1  S_1  
     e( 17 - 17) =     10.08525  eV     1   --> B_2  D_4  S_4  
     e( 18 - 18) =     11.44657  eV     1   --> B_1  D_3  S_3  
     e( 19 - 19) =     13.69133  eV     1   --> A_1  D_1  S_1  
     e( 20 - 20) =     15.79546  eV     1   --> B_1  D_3  S_3  

 **************************************************************************

 **************************************************************************

                    xk=(   0.21667,   0.00000,   0.00000  )

     Band symmetry, C_2v (mm2)  point group:

     e(  1 -  1) =    -22.99149  eV     1   --> A_1  D_1  S_1  
     e(  2 -  2) =    -10.91132  eV     1   --> B_1  D_3  S_3  
     e(  3 -  3) =     -9.84698  eV     1   --> B_2  D_4  S_4  
     e(  4 -  4) =     -8.93254  eV     1   --> A_1  D_1  S_1  
     e(  5 -  5) =      0.16323  eV     1   --> A_1  D_1  S_1  
     e(  6 -  6) =      0.98532  eV     1   --> B_1  D_3  S_3  
     e(  7 -  7) =      1.97459  eV     1   --> A_1  D_1  S_1  
     e(  8 -  8) =      2.38754  eV     1   --> B_1  D_3  S_3  
     e(  9 -  9) =      3.88397  eV     1   --> A_1  D_1  S_1  
     e( 10 - 10) =      4.66787  eV     1   --> B_1  D_3  S_3  
     e( 11 - 11) =      4.79320  eV     1   --> A_2  D_2  S_2  
     e( 12 - 12) =      4.84190  eV     1   --> A_1  D_1  S_1  
     e( 13 - 13) =      6.40617  eV     1   --> B_2  D_4  S_4  
     e( 14 - 14) =      6.60771  eV     1   --> A_1  D_1  S_1  
     e( 15 - 15) =      7.77354  eV     1   --> B_1  D_3  S_3  
     e( 16 - 16) =      9.94115  eV     1   --> A_1  D_1  S_1  
     e( 17 - 17) =     10.40854  eV     1   --> B_2  D_4  S_4  
     e( 18 - 18) =     11.59294  eV     1   --> B_1  D_3  S_3  
     e( 19 - 19) =     13.85782  eV     1   --> A_1  D_1  S_1  
     e( 20 - 20) =     15.80828  eV     1   --> B_1  D_3  S_3  

 **************************************************************************

 **************************************************************************

                    xk=(   0.23333,   0.00000,   0.00000  )

     Band symmetry, C_2v (mm2)  point group:

     e(  1 -  1) =    -22.85884  eV     1   --> A_1  D_1  S_1  
     e(  2 -  2) =    -10.75476  eV     1   --> B_1  D_3  S_3  
     e(  3 -  3) =    -10.15361  eV     1   --> B_2  D_4  S_4  
     e(  4 -  4) =     -9.16362  eV     1   --> A_1  D_1  S_1  
     e(  5 -  5) =      0.34495  eV     1   --> A_1  D_1  S_1  
     e(  6 -  6) =      1.16856  eV     1   --> B_1  D_3  S_3  
     e(  7 -  7) =      2.15995  eV     1   --> A_1  D_1  S_1  
     e(  8 -  8) =      2.57134  eV     1   --> B_1  D_3  S_3  
     e(  9 -  9) =      4.06589  eV     1   --> A_1  D_1  S_1  
     e( 10 - 10) =      4.44822  eV     1   --> A_2  D_2  S_2  
     e( 11 - 11) =      4.84860  eV     1   --> B_1  D_3  S_3  
     e( 12 - 12) =      4.96305  eV     1   --> A_1  D_1  S_1  
     e( 13 - 13) =      6.59065  eV     1   --> B_2  D_4  S_4  
     e( 14 - 14) =      6.79095  eV     1   --> A_1  D_1  S_1  
     e( 15 - 15) =      7.94773  eV     1   --> B_1  D_3  S_3  
     e( 16 - 16) =     10.12294  eV     1   --> A_1  D_1  S_1  
     e( 17 - 17) =     10.76275  eV     1   --> B_2  D_4  S_4  
     e( 18 - 18) =     11.74596  eV     1   --> B_1  D_3  S_3  
     e( 19 - 19) =     14.03716  eV     1   --> A_1  D_1  S_1  
     e( 20 - 20) =     15.74712  eV     1   --> B_1  D_3  S_3  

 **************************************************************************

 **************************************************************************

                    xk=(   0.25000,   0.00000,   0.00000  )

     Band symmetry, C_2v (mm2)  point group:

     e(  1 -  1) =    -22.71663  eV     1   --> A_1  D_1  S_1  
     e(  2 -  2) =    -10.58732  eV     1   --> B_1  D_3  S_3  
     e(  3 -  3) =    -10.46299  eV     1   --> B_2  D_4  S_4  
     e(  4 -  4) =     -9.40311  eV     1   --> A_1  D_1  S_1  
     e(  5 -  5) =      0.54006  eV     1   --> A_1  D_1  S_1  
     e(  6 -  6) =      1.36516  eV     1   --> B_1  D_3  S_3  
     e(  7 -  7) =      2.35903  eV     1   --> A_1  D_1  S_1  
     e(  8 -  8) =      2.76856  eV     1   --> B_1  D_3  S_3  
     e(  9 -  9) =      4.09338  eV     1   --> A_2  D_2  S_2  
     e( 10 - 10) =      4.26115  eV     1   --> A_1  D_1  S_1  
     e( 11 - 11) =      5.04225  eV     1   --> B_1  D_3  S_3  
     e( 12 - 12) =      5.09552  eV     1   --> A_1  D_1  S_1  
     e( 13 - 13) =      6.76166  eV     1   --> B_2  D_4  S_4  
     e( 14 - 14) =      6.98745  eV     1   --> A_1  D_1  S_1  
     e( 15 - 15) =      8.13339  eV     1   --> B_1  D_3  S_3  
     e( 16 - 16) =     10.31787  eV     1   --> A_1  D_1  S_1  
     e( 17 - 17) =     11.14421  eV     1   --> B_2  D_4  S_4  
     e( 18 - 18) =     11.90260  eV     1   --> B_1  D_3  S_3  
     e( 19 - 19) =     14.22924  eV     1   --> A_1  D_1  S_1  
     e( 20 - 20) =     15.58711  eV     1   --> B_1  D_3  S_3  

 **************************************************************************

 **************************************************************************

                    xk=(   0.26667,   0.00000,   0.00000  )

     Band symmetry, C_2v (mm2)  point group:

     e(  1 -  1) =    -22.56491  eV     1   --> A_1  D_1  S_1  
     e(  2 -  2) =    -10.77364  eV     1   --> B_2  D_4  S_4  
     e(  3 -  3) =    -10.40920  eV     1   --> B_1  D_3  S_3  
     e(  4 -  4) =     -9.64973  eV     1   --> A_1  D_1  S_1  
     e(  5 -  5) =      0.74856  eV     1   --> A_1  D_1  S_1  
     e(  6 -  6) =      1.57506  eV     1   --> B_1  D_3  S_3  
     e(  7 -  7) =      2.57183  eV     1   --> A_1  D_1  S_1  
     e(  8 -  8) =      2.97917  eV     1   --> B_1  D_3  S_3  
     e(  9 -  9) =      3.73071  eV     1   --> A_2  D_2  S_2  
     e( 10 - 10) =      4.46965  eV     1   --> A_1  D_1  S_1  
     e( 11 - 11) =      5.23935  eV     1   --> A_1  D_1  S_1  
     e( 12 - 12) =      5.24866  eV     1   --> B_1  D_3  S_3  
     e( 13 - 13) =      6.92041  eV     1   --> B_2  D_4  S_4  
     e( 14 - 14) =      7.19721  eV     1   --> A_1  D_1  S_1  
     e( 15 - 15) =      8.32990  eV     1   --> B_1  D_3  S_3  
     e( 16 - 16) =     10.52590  eV     1   --> A_1  D_1  S_1  
     e( 17 - 17) =     11.54836  eV     1   --> B_2  D_4  S_4  
     e( 18 - 18) =     12.05790  eV     1   --> B_1  D_3  S_3  
     e( 19 - 19) =     14.43392  eV     1   --> A_1  D_1  S_1  
     e( 20 - 20) =     15.33914  eV     1   --> B_1  D_3  S_3  

 **************************************************************************

 **************************************************************************

                    xk=(   0.28333,   0.00000,   0.00000  )

     Band symmetry, C_2v (mm2)  point group:

     e(  1 -  1) =    -22.40376  eV     1   --> A_1  D_1  S_1  
     e(  2 -  2) =    -11.08427  eV     1   --> B_2  D_4  S_4  
     e(  3 -  3) =    -10.22059  eV     1   --> B_1  D_3  S_3  
     e(  4 -  4) =     -9.90220  eV     1   --> A_1  D_1  S_1  
     e(  5 -  5) =      0.97040  eV     1   --> A_1  D_1  S_1  
     e(  6 -  6) =      1.79817  eV     1   --> B_1  D_3  S_3  
     e(  7 -  7) =      2.79834  eV     1   --> A_1  D_1  S_1  
     e(  8 -  8) =      3.20307  eV     1   --> B_1  D_3  S_3  
     e(  9 -  9) =      3.36207  eV     1   --> A_2  D_2  S_2  
     e( 10 - 10) =      4.69124  eV     1   --> A_1  D_1  S_1  
     e( 11 - 11) =      5.39457  eV     1   --> A_1  D_1  S_1  
     e( 12 - 12) =      5.46761  eV     1   --> B_1  D_3  S_3  
     e( 13 - 13) =      7.06851  eV     1   --> B_2  D_4  S_4  
     e( 14 - 14) =      7.42019  eV     1   --> A_1  D_1  S_1  
     e( 15 - 15) =      8.53636  eV     1   --> B_1  D_3  S_3  
     e( 16 - 16) =     10.74696  eV     1   --> A_1  D_1  S_1  
     e( 17 - 17) =     11.96997  eV     1   --> B_2  D_4  S_4  
     e( 18 - 18) =     12.20350  eV     1   --> B_1  D_3  S_3  
     e( 19 - 19) =     14.65099  eV     1   --> A_1  D_1  S_1  
     e( 20 - 20) =     15.04641  eV     1   --> B_1  D_3  S_3  

 **************************************************************************

 **************************************************************************

                    xk=(   0.30000,   0.00000,   0.00000  )

     Band symmetry, C_2v (mm2)  point group:

     e(  1 -  1) =    -22.23325  eV     1   --> A_1  D_1  S_1  
     e(  2 -  2) =    -11.39379  eV     1   --> B_2  D_4  S_4  
     e(  3 -  3) =    -10.15933  eV     1   --> A_1  D_1  S_1  
     e(  4 -  4) =    -10.02173  eV     1   --> B_1  D_3  S_3  
     e(  5 -  5) =      1.20555  eV     1   --> A_1  D_1  S_1  
     e(  6 -  6) =      2.03438  eV     1   --> B_1  D_3  S_3  
     e(  7 -  7) =      2.98917  eV     1   --> A_2  D_2  S_2  
     e(  8 -  8) =      3.03855  eV     1   --> A_1  D_1  S_1  
     e(  9 -  9) =      3.44019  eV     1   --> B_1  D_3  S_3  
     e( 10 - 10) =      4.92569  eV     1   --> A_1  D_1  S_1  
     e( 11 - 11) =      5.56117  eV     1   --> A_1  D_1  S_1  
     e( 12 - 12) =      5.69881  eV     1   --> B_1  D_3  S_3  
     e( 13 - 13) =      7.20767  eV     1   --> B_2  D_4  S_4  
     e( 14 - 14) =      7.65636  eV     1   --> A_1  D_1  S_1  
     e( 15 - 15) =      8.75148  eV     1   --> B_1  D_3  S_3  
     e( 16 - 16) =     10.98095  eV     1   --> A_1  D_1  S_1  
     e( 17 - 17) =     12.32520  eV     1   --> B_1  D_3  S_3  
     e( 18 - 18) =     12.40318  eV     1   --> B_2  D_4  S_4  
     e( 19 - 19) =     14.75813  eV     1   --> B_1  D_3  S_3  
     e( 20 - 20) =     14.88019  eV     1   --> A_1  D_1  S_1  

 **************************************************************************

 **************************************************************************

                    xk=(   0.31667,   0.00000,   0.00000  )

     Band symmetry, C_2v (mm2)  point group:

     e(  1 -  1) =    -22.05349  eV     1   --> A_1  D_1  S_1  
     e(  2 -  2) =    -11.70122  eV     1   --> B_2  D_4  S_4  
     e(  3 -  3) =    -10.41996  eV     1   --> A_1  D_1  S_1  
     e(  4 -  4) =     -9.81287  eV     1   --> B_1  D_3  S_3  
     e(  5 -  5) =      1.45397  eV     1   --> A_1  D_1  S_1  
     e(  6 -  6) =      2.28357  eV     1   --> B_1  D_3  S_3  
     e(  7 -  7) =      2.61363  eV     1   --> A_2  D_2  S_2  
     e(  8 -  8) =      3.29244  eV     1   --> A_1  D_1  S_1  
     e(  9 -  9) =      3.69039  eV     1   --> B_1  D_3  S_3  
     e( 10 - 10) =      5.17268  eV     1   --> A_1  D_1  S_1  
     e( 11 - 11) =      5.73921  eV     1   --> A_1  D_1  S_1  
     e( 12 - 12) =      5.94186  eV     1   --> B_1  D_3  S_3  
     e( 13 - 13) =      7.33951  eV     1   --> B_2  D_4  S_4  
     e( 14 - 14) =      7.90569  eV     1   --> A_1  D_1  S_1  
     e( 15 - 15) =      8.97325  eV     1   --> B_1  D_3  S_3  
     e( 16 - 16) =     11.22778  eV     1   --> A_1  D_1  S_1  
     e( 17 - 17) =     12.40059  eV     1   --> B_1  D_3  S_3  
     e( 18 - 18) =     12.84136  eV     1   --> B_2  D_4  S_4  
     e( 19 - 19) =     14.52077  eV     1   --> B_1  D_3  S_3  
     e( 20 - 20) =     15.12116  eV     1   --> A_1  D_1  S_1  

 **************************************************************************

 **************************************************************************

                    xk=(   0.33333,   0.00000,   0.00000  )

     Band symmetry, C_2v (mm2)  point group:

     e(  1 -  1) =    -21.86457  eV     1   --> A_1  D_1  S_1  
     e(  2 -  2) =    -12.00575  eV     1   --> B_2  D_4  S_4  
     e(  3 -  3) =    -10.68301  eV     1   --> A_1  D_1  S_1  
     e(  4 -  4) =     -9.59433  eV     1   --> B_1  D_3  S_3  
     e(  5 -  5) =      1.71559  eV     1   --> A_1  D_1  S_1  
     e(  6 -  6) =      2.23686  eV     1   --> A_2  D_2  S_2  
     e(  7 -  7) =      2.54556  eV     1   --> B_1  D_3  S_3  
     e(  8 -  8) =      3.56001  eV     1   --> A_1  D_1  S_1  
     e(  9 -  9) =      3.95352  eV     1   --> B_1  D_3  S_3  
     e( 10 - 10) =      5.43161  eV     1   --> A_1  D_1  S_1  
     e( 11 - 11) =      5.92889  eV     1   --> A_1  D_1  S_1  
     e( 12 - 12) =      6.19622  eV     1   --> B_1  D_3  S_3  
     e( 13 - 13) =      7.46547  eV     1   --> B_2  D_4  S_4  
     e( 14 - 14) =      8.16814  eV     1   --> A_1  D_1  S_1  
     e( 15 - 15) =      9.19853  eV     1   --> B_1  D_3  S_3  
     e( 16 - 16) =     11.48731  eV     1   --> A_1  D_1  S_1  
     e( 17 - 17) =     12.40300  eV     1   --> B_1  D_3  S_3  
     e( 18 - 18) =     13.27653  eV     1   --> B_2  D_4  S_4  
     e( 19 - 19) =     14.37714  eV     1   --> B_1  D_3  S_3  
     e( 20 - 20) =     15.37332  eV     1   --> A_1  D_1  S_1  

 **************************************************************************

 **************************************************************************

                    xk=(   0.35000,   0.00000,   0.00000  )

     Band symmetry, C_2v (mm2)  point group:

     e(  1 -  1) =    -21.66661  eV     1   --> A_1  D_1  S_1  
     e(  2 -  2) =    -12.30668  eV     1   --> B_2  D_4  S_4  
     e(  3 -  3) =    -10.94744  eV     1   --> A_1  D_1  S_1  
     e(  4 -  4) =     -9.36643  eV     1   --> B_1  D_3  S_3  
     e(  5 -  5) =      1.86017  eV     1   --> A_2  D_2  S_2  
     e(  6 -  6) =      1.99036  eV     1   --> A_1  D_1  S_1  
     e(  7 -  7) =      2.82012  eV     1   --> B_1  D_3  S_3  
     e(  8 -  8) =      3.84121  eV     1   --> A_1  D_1  S_1  
     e(  9 -  9) =      4.22938  eV     1   --> B_1  D_3  S_3  
     e( 10 - 10) =      5.70152  eV     1   --> A_1  D_1  S_1  
     e( 11 - 11) =      6.13074  eV     1   --> A_1  D_1  S_1  
     e( 12 - 12) =      6.46111  eV     1   --> B_1  D_3  S_3  
     e( 13 - 13) =      7.58672  eV     1   --> B_2  D_4  S_4  
     e( 14 - 14) =      8.44363  eV     1   --> A_1  D_1  S_1  
     e( 15 - 15) =      9.42215  eV     1   --> B_1  D_3  S_3  
     e( 16 - 16) =     11.75936  eV     1   --> A_1  D_1  S_1  
     e( 17 - 17) =     12.32116  eV     1   --> B_1  D_3  S_3  
     e( 18 - 18) =     13.69811  eV     1   --> B_2  D_4  S_4  
     e( 19 - 19) =     14.35155  eV     1   --> B_1  D_3  S_3  
     e( 20 - 20) =     15.63567  eV     1   --> A_1  D_1  S_1  

 **************************************************************************

 **************************************************************************

                    xk=(   0.36667,   0.00000,   0.00000  )

     Band symmetry, C_2v (mm2)  point group:

     e(  1 -  1) =    -21.45975  eV     1   --> A_1  D_1  S_1  
     e(  2 -  2) =    -12.60338  eV     1   --> B_2  D_4  S_4  
     e(  3 -  3) =    -11.21228  eV     1   --> A_1  D_1  S_1  
     e(  4 -  4) =     -9.12954  eV     1   --> B_1  D_3  S_3  
     e(  5 -  5) =      1.48477  eV     1   --> A_2  D_2  S_2  
     e(  6 -  6) =      2.27820  eV     1   --> A_1  D_1  S_1  
     e(  7 -  7) =      3.10695  eV     1   --> B_1  D_3  S_3  
     e(  8 -  8) =      4.13604  eV     1   --> A_1  D_1  S_1  
     e(  9 -  9) =      4.51769  eV     1   --> B_1  D_3  S_3  
     e( 10 - 10) =      5.98058  eV     1   --> A_1  D_1  S_1  
     e( 11 - 11) =      6.34600  eV     1   --> A_1  D_1  S_1  
     e( 12 - 12) =      6.73535  eV     1   --> B_1  D_3  S_3  
     e( 13 - 13) =      7.70422  eV     1   --> B_2  D_4  S_4  
     e( 14 - 14) =      8.73208  eV     1   --> A_1  D_1  S_1  
     e( 15 - 15) =      9.63540  eV     1   --> B_1  D_3  S_3  
     e( 16 - 16) =     12.04369  eV     1   --> A_1  D_1  S_1  
     e( 17 - 17) =     12.17868  eV     1   --> B_1  D_3  S_3  
     e( 18 - 18) =     14.09052  eV     1   --> B_2  D_4  S_4  
     e( 19 - 19) =     14.43430  eV     1   --> B_1  D_3  S_3  
     e( 20 - 20) =     15.90593  eV     1   --> A_1  D_1  S_1  

 **************************************************************************

 **************************************************************************

                    xk=(   0.38333,   0.00000,   0.00000  )

     Band symmetry, C_2v (mm2)  point group:

     e(  1 -  1) =    -21.24414  eV     1   --> A_1  D_1  S_1  
     e(  2 -  2) =    -12.89533  eV     1   --> B_2  D_4  S_4  
     e(  3 -  3) =    -11.47661  eV     1   --> A_1  D_1  S_1  
     e(  4 -  4) =     -8.88408  eV     1   --> B_1  D_3  S_3  
     e(  5 -  5) =      1.11173  eV     1   --> A_2  D_2  S_2  
     e(  6 -  6) =      2.57902  eV     1   --> A_1  D_1  S_1  
     e(  7 -  7) =      3.40566  eV     1   --> B_1  D_3  S_3  
     e(  8 -  8) =      4.44446  eV     1   --> A_1  D_1  S_1  
     e(  9 -  9) =      4.81806  eV     1   --> B_1  D_3  S_3  
     e( 10 - 10) =      6.26539  eV     1   --> A_1  D_1  S_1  
     e( 11 - 11) =      6.57739  eV     1   --> A_1  D_1  S_1  
     e( 12 - 12) =      7.01717  eV     1   --> B_1  D_3  S_3  
     e( 13 - 13) =      7.81867  eV     1   --> B_2  D_4  S_4  
     e( 14 - 14) =      9.03338  eV     1   --> A_1  D_1  S_1  
     e( 15 - 15) =      9.82371  eV     1   --> B_1  D_3  S_3  
     e( 16 - 16) =     12.02401  eV     1   --> B_1  D_3  S_3  
     e( 17 - 17) =     12.33995  eV     1   --> A_1  D_1  S_1  
     e( 18 - 18) =     14.42854  eV     1   --> B_2  D_4  S_4  
     e( 19 - 19) =     14.59541  eV     1   --> B_1  D_3  S_3  
     e( 20 - 20) =     16.17412  eV     1   --> A_1  D_1  S_1  

 **************************************************************************

 **************************************************************************

                    xk=(   0.40000,   0.00000,   0.00000  )

     Band symmetry, C_2v (mm2)  point group:

     e(  1 -  1) =    -21.01996  eV     1   --> A_1  D_1  S_1  
     e(  2 -  2) =    -13.18205  eV     1   --> B_2  D_4  S_4  
     e(  3 -  3) =    -11.73954  eV     1   --> A_1  D_1  S_1  
     e(  4 -  4) =     -8.63054  eV     1   --> B_1  D_3  S_3  
     e(  5 -  5) =      0.74202  eV     1   --> A_2  D_2  S_2  
     e(  6 -  6) =      2.89270  eV     1   --> A_1  D_1  S_1  
     e(  7 -  7) =      3.71566  eV     1   --> B_1  D_3  S_3  
     e(  8 -  8) =      4.76643  eV     1   --> A_1  D_1  S_1  
     e(  9 -  9) =      5.12992  eV     1   --> B_1  D_3  S_3  
     e( 10 - 10) =      6.55010  eV     1   --> A_1  D_1  S_1  
     e( 11 - 11) =      6.82999  eV     1   --> A_1  D_1  S_1  
     e( 12 - 12) =      7.30371  eV     1   --> B_1  D_3  S_3  
     e( 13 - 13) =      7.93055  eV     1   --> B_2  D_4  S_4  
     e( 14 - 14) =      9.34735  eV     1   --> A_1  D_1  S_1  
     e( 15 - 15) =      9.96527  eV     1   --> B_1  D_3  S_3  
     e( 16 - 16) =     11.91067  eV     1   --> B_1  D_3  S_3  
     e( 17 - 17) =     12.64768  eV     1   --> A_1  D_1  S_1  
     e( 18 - 18) =     14.67124  eV     1   --> B_2  D_4  S_4  
     e( 19 - 19) =     14.80646  eV     1   --> B_1  D_3  S_3  
     e( 20 - 20) =     16.23156  eV     1   --> A_1  D_1  S_1  

 **************************************************************************

 **************************************************************************

                    xk=(   0.41667,   0.00000,   0.00000  )

     Band symmetry, C_2v (mm2)  point group:

     e(  1 -  1) =    -20.78741  eV     1   --> A_1  D_1  S_1  
     e(  2 -  2) =    -13.46315  eV     1   --> B_2  D_4  S_4  
     e(  3 -  3) =    -12.00025  eV     1   --> A_1  D_1  S_1  
     e(  4 -  4) =     -8.36944  eV     1   --> B_1  D_3  S_3  
     e(  5 -  5) =      0.37653  eV     1   --> A_2  D_2  S_2  
     e(  6 -  6) =      3.21911  eV     1   --> A_1  D_1  S_1  
     e(  7 -  7) =      4.03613  eV     1   --> B_1  D_3  S_3  
     e(  8 -  8) =      5.10188  eV     1   --> A_1  D_1  S_1  
     e(  9 -  9) =      5.45245  eV     1   --> B_1  D_3  S_3  
     e( 10 - 10) =      6.82739  eV     1   --> A_1  D_1  S_1  
     e( 11 - 11) =      7.11007  eV     1   --> A_1  D_1  S_1  
     e( 12 - 12) =      7.59022  eV     1   --> B_1  D_3  S_3  
     e( 13 - 13) =      8.04010  eV     1   --> B_2  D_4  S_4  
     e( 14 - 14) =      9.67378  eV     1   --> A_1  D_1  S_1  
     e( 15 - 15) =     10.03800  eV     1   --> B_1  D_3  S_3  
     e( 16 - 16) =     11.88496  eV     1   --> B_1  D_3  S_3  
     e( 17 - 17) =     12.96614  eV     1   --> A_1  D_1  S_1  
     e( 18 - 18) =     14.76682  eV     1   --> B_2  D_4  S_4  
     e( 19 - 19) =     15.04550  eV     1   --> B_1  D_3  S_3  
     e( 20 - 20) =     15.83048  eV     1   --> A_1  D_1  S_1  

 **************************************************************************

 **************************************************************************

                    xk=(   0.43333,   0.00000,   0.00000  )

     Band symmetry, C_2v (mm2)  point group:

     e(  1 -  1) =    -20.54673  eV     1   --> A_1  D_1  S_1  
     e(  2 -  2) =    -13.73826  eV     1   --> B_2  D_4  S_4  
     e(  3 -  3) =    -12.25794  eV     1   --> A_1  D_1  S_1  
     e(  4 -  4) =     -8.10141  eV     1   --> B_1  D_3  S_3  
     e(  5 -  5) =      0.01605  eV     1   --> A_2  D_2  S_2  
     e(  6 -  6) =      3.55806  eV     1   --> A_1  D_1  S_1  
     e(  7 -  7) =      4.36586  eV     1   --> B_1  D_3  S_3  
     e(  8 -  8) =      5.45076  eV     1   --> A_1  D_1  S_1  
     e(  9 -  9) =      5.78439  eV     1   --> B_1  D_3  S_3  
     e( 10 - 10) =      7.09377  eV     1   --> A_1  D_1  S_1  
     e( 11 - 11) =      7.41994  eV     1   --> A_1  D_1  S_1  
     e( 12 - 12) =      7.86856  eV     1   --> B_1  D_3  S_3  
     e( 13 - 13) =      8.14738  eV     1   --> B_2  D_4  S_4  
     e( 14 - 14) =     10.01238  eV     1   --> A_1  D_1  S_1  
     e( 15 - 15) =     10.04161  eV     1   --> B_1  D_3  S_3  
     e( 16 - 16) =     11.96817  eV     1   --> B_1  D_3  S_3  
     e( 17 - 17) =     13.29410  eV     1   --> A_1  D_1  S_1  
     e( 18 - 18) =     14.69267  eV     1   --> B_2  D_4  S_4  
     e( 19 - 19) =     15.28909  eV     1   --> B_1  D_3  S_3  
     e( 20 - 20) =     15.40537  eV     1   --> A_1  D_1  S_1  

 **************************************************************************

 **************************************************************************

                    xk=(   0.45000,   0.00000,   0.00000  )

     Band symmetry, C_2v (mm2)  point group:

     e(  1 -  1) =    -20.29822  eV     1   --> A_1  D_1  S_1  
     e(  2 -  2) =    -14.00709  eV     1   --> B_2  D_4  S_4  
     e(  3 -  3) =    -12.51183  eV     1   --> A_1  D_1  S_1  
     e(  4 -  4) =     -7.82712  eV     1   --> B_1  D_3  S_3  
     e(  5 -  5) =     -0.33872  eV     1   --> A_2  D_2  S_2  
     e(  6 -  6) =      3.90932  eV     1   --> A_1  D_1  S_1  
     e(  7 -  7) =      4.70295  eV     1   --> B_1  D_3  S_3  
     e(  8 -  8) =      5.81296  eV     1   --> A_1  D_1  S_1  
     e(  9 -  9) =      6.12368  eV     1   --> B_1  D_3  S_3  
     e( 10 - 10) =      7.35158  eV     1   --> A_1  D_1  S_1  
     e( 11 - 11) =      7.75576  eV     1   --> A_1  D_1  S_1  
     e( 12 - 12) =      8.12486  eV     1   --> B_1  D_3  S_3  
     e( 13 - 13) =      8.25221  eV     1   --> B_2  D_4  S_4  
     e( 14 - 14) =     10.01233  eV     1   --> B_1  D_3  S_3  
     e( 15 - 15) =     10.36271  eV     1   --> A_1  D_1  S_1  
     e( 16 - 16) =     12.14751  eV     1   --> B_1  D_3  S_3  
     e( 17 - 17) =     13.62907  eV     1   --> A_1  D_1  S_1  
     e( 18 - 18) =     14.48728  eV     1   --> B_2  D_4  S_4  
     e( 19 - 19) =     14.99174  eV     1   --> A_1  D_1  S_1  
     e( 20 - 20) =     15.35187  eV     1   --> A_2  D_2  S_2  

 **************************************************************************

 **************************************************************************

                    xk=(   0.46667,   0.00000,   0.00000  )

     Band symmetry, C_2v (mm2)  point group:

     e(  1 -  1) =    -20.04220  eV     1   --> A_1  D_1  S_1  
     e(  2 -  2) =    -14.26938  eV     1   --> B_2  D_4  S_4  
     e(  3 -  3) =    -12.76114  eV     1   --> A_1  D_1  S_1  
     e(  4 -  4) =     -7.54734  eV     1   --> B_1  D_3  S_3  
     e(  5 -  5) =     -0.68712  eV     1   --> A_2  D_2  S_2  
     e(  6 -  6) =      4.27262  eV     1   --> A_1  D_1  S_1  
     e(  7 -  7) =      5.04439  eV     1   --> B_1  D_3  S_3  
     e(  8 -  8) =      6.18834  eV     1   --> A_1  D_1  S_1  
     e(  9 -  9) =      6.46694  eV     1   --> B_1  D_3  S_3  
     e( 10 - 10) =      7.60420  eV     1   --> A_1  D_1  S_1  
     e( 11 - 11) =      8.11227  eV     1   --> A_1  D_1  S_1  
     e( 12 - 12) =      8.33860  eV     1   --> B_1  D_3  S_3  
     e( 13 - 13) =      8.35415  eV     1   --> B_2  D_4  S_4  
     e( 14 - 14) =     10.00798  eV     1   --> B_1  D_3  S_3  
     e( 15 - 15) =     10.72413  eV     1   --> A_1  D_1  S_1  
     e( 16 - 16) =     12.39468  eV     1   --> B_1  D_3  S_3  
     e( 17 - 17) =     13.96201  eV     1   --> A_1  D_1  S_1  
     e( 18 - 18) =     14.20943  eV     1   --> B_2  D_4  S_4  
     e( 19 - 19) =     14.60101  eV     1   --> A_1  D_1  S_1  
     e( 20 - 20) =     14.92303  eV     1   --> A_2  D_2  S_2  

 **************************************************************************

 **************************************************************************

                    xk=(   0.48333,   0.00000,   0.00000  )

     Band symmetry, C_2v (mm2)  point group:

     e(  1 -  1) =    -19.77911  eV     1   --> A_1  D_1  S_1  
     e(  2 -  2) =    -14.52488  eV     1   --> B_2  D_4  S_4  
     e(  3 -  3) =    -13.00510  eV     1   --> A_1  D_1  S_1  
     e(  4 -  4) =     -7.26297  eV     1   --> B_1  D_3  S_3  
     e(  5 -  5) =     -1.02858  eV     1   --> A_2  D_2  S_2  
     e(  6 -  6) =      4.64756  eV     1   --> A_1  D_1  S_1  
     e(  7 -  7) =      5.38508  eV     1   --> B_1  D_3  S_3  
     e(  8 -  8) =      6.57670  eV     1   --> A_1  D_1  S_1  
     e(  9 -  9) =      6.80832  eV     1   --> B_1  D_3  S_3  
     e( 10 - 10) =      7.85304  eV     1   --> A_1  D_1  S_1  
     e( 11 - 11) =      8.45253  eV     1   --> B_2  D_4  S_4  
     e( 12 - 12) =      8.48573  eV     1   --> A_1  D_1  S_1  
     e( 13 - 13) =      8.49197  eV     1   --> B_1  D_3  S_3  
     e( 14 - 14) =     10.08233  eV     1   --> B_1  D_3  S_3  
     e( 15 - 15) =     11.09567  eV     1   --> A_1  D_1  S_1  
     e( 16 - 16) =     12.68438  eV     1   --> B_1  D_3  S_3  
     e( 17 - 17) =     13.89992  eV     1   --> B_2  D_4  S_4  
     e( 18 - 18) =     14.12223  eV     1   --> A_1  D_1  S_1  
     e( 19 - 19) =     14.40249  eV     1   --> A_1  D_1  S_1  
     e( 20 - 20) =     14.50526  eV     1   --> A_2  D_2  S_2  

 **************************************************************************

 **************************************************************************

                    xk=(   0.50000,   0.00000,   0.00000  )

     Band symmetry, C_2v (mm2)  point group:

     e(  1 -  1) =    -19.50945  eV     1   --> A_1  D_1  S_1  
     e(  2 -  2) =    -14.77337  eV     1   --> B_2  D_4  S_4  
     e(  3 -  3) =    -13.24288  eV     1   --> A_1  D_1  S_1  
     e(  4 -  4) =     -6.97498  eV     1   --> B_1  D_3  S_3  
     e(  5 -  5) =     -1.36257  eV     1   --> A_2  D_2  S_2  
     e(  6 -  6) =      5.03362  eV     1   --> A_1  D_1  S_1  
     e(  7 -  7) =      5.71620  eV     1   --> B_1  D_3  S_3  
     e(  8 -  8) =      6.97770  eV     1   --> A_1  D_1  S_1  
     e(  9 -  9) =      7.13807  eV     1   --> B_1  D_3  S_3  
     e( 10 - 10) =      8.09749  eV     1   --> A_1  D_1  S_1  
     e( 11 - 11) =      8.54633  eV     1   --> B_2  D_4  S_4  
     e( 12 - 12) =      8.59596  eV     1   --> B_1  D_3  S_3  
     e( 13 - 13) =      8.87375  eV     1   --> A_1  D_1  S_1  
     e( 14 - 14) =     10.25873  eV     1   --> B_1  D_3  S_3  
     e( 15 - 15) =     11.47567  eV     1   --> A_1  D_1  S_1  
     e( 16 - 16) =     12.99605  eV     1   --> B_1  D_3  S_3  
     e( 17 - 17) =     13.58122  eV     1   --> B_2  D_4  S_4  
     e( 18 - 18) =     13.80530  eV     1   --> A_1  D_1  S_1  
     e( 19 - 19) =     14.09905  eV     1   --> A_2  D_2  S_2  
     e( 20 - 20) =     14.69346  eV     1   --> A_1  D_1  S_1  

 **************************************************************************

 **************************************************************************

                    xk=(   0.51667,   0.00000,   0.00000  )

     Band symmetry, C_2v (mm2)  point group:

     e(  1 -  1) =    -19.23389  eV     1   --> A_1  D_1  S_1  
     e(  2 -  2) =    -15.01470  eV     1   --> B_2  D_4  S_4  
     e(  3 -  3) =    -13.47360  eV     1   --> A_1  D_1  S_1  
     e(  4 -  4) =     -6.68448  eV     1   --> B_1  D_3  S_3  
     e(  5 -  5) =     -1.68861  eV     1   --> A_2  D_2  S_2  
     e(  6 -  6) =      5.43009  eV     1   --> A_1  D_1  S_1  
     e(  7 -  7) =      6.02245  eV     1   --> B_1  D_3  S_3  
     e(  8 -  8) =      7.39078  eV     1   --> A_1  D_1  S_1  
     e(  9 -  9) =      7.44299  eV     1   --> B_1  D_3  S_3  
     e( 10 - 10) =      8.33557  eV     1   --> A_1  D_1  S_1  
     e( 11 - 11) =      8.63418  eV     1   --> B_2  D_4  S_4  
     e( 12 - 12) =      8.70223  eV     1   --> B_1  D_3  S_3  
     e( 13 - 13) =      9.27456  eV     1   --> A_1  D_1  S_1  
     e( 14 - 14) =     10.52302  eV     1   --> B_1  D_3  S_3  
     e( 15 - 15) =     11.86095  eV     1   --> A_1  D_1  S_1  
     e( 16 - 16) =     13.26567  eV     1   --> B_2  D_4  S_4  
     e( 17 - 17) =     13.30256  eV     1   --> B_1  D_3  S_3  
     e( 18 - 18) =     13.46602  eV     1   --> A_1  D_1  S_1  
     e( 19 - 19) =     13.70476  eV     1   --> A_2  D_2  S_2  
     e( 20 - 20) =     14.41580  eV     1   --> B_1  D_3  S_3  

 **************************************************************************

 **************************************************************************

                    xk=(   0.53333,   0.00000,   0.00000  )

     Band symmetry, C_2v (mm2)  point group:

     e(  1 -  1) =    -18.95325  eV     1   --> A_1  D_1  S_1  
     e(  2 -  2) =    -15.24869  eV     1   --> B_2  D_4  S_4  
     e(  3 -  3) =    -13.69623  eV     1   --> A_1  D_1  S_1  
     e(  4 -  4) =     -6.39271  eV     1   --> B_1  D_3  S_3  
     e(  5 -  5) =     -2.00629  eV     1   --> A_2  D_2  S_2  
     e(  6 -  6) =      5.83595  eV     1   --> A_1  D_1  S_1  
     e(  7 -  7) =      6.27963  eV     1   --> B_1  D_3  S_3  
     e(  8 -  8) =      7.71775  eV     1   --> B_1  D_3  S_3  
     e(  9 -  9) =      7.81475  eV     1   --> A_1  D_1  S_1  
     e( 10 - 10) =      8.56439  eV     1   --> A_1  D_1  S_1  
     e( 11 - 11) =      8.71425  eV     1   --> B_2  D_4  S_4  
     e( 12 - 12) =      8.87265  eV     1   --> B_1  D_3  S_3  
     e( 13 - 13) =      9.68640  eV     1   --> A_1  D_1  S_1  
     e( 14 - 14) =     10.84745  eV     1   --> B_1  D_3  S_3  
     e( 15 - 15) =     12.24308  eV     1   --> A_1  D_1  S_1  
     e( 16 - 16) =     12.96068  eV     1   --> B_2  D_4  S_4  
     e( 17 - 17) =     13.15201  eV     1   --> A_1  D_1  S_1  
     e( 18 - 18) =     13.32270  eV     1   --> A_2  D_2  S_2  
     e( 19 - 19) =     13.51875  eV     1   --> B_1  D_3  S_3  
     e( 20 - 20) =     14.17635  eV     1   --> B_1  D_3  S_3  

 **************************************************************************

 **************************************************************************

                    xk=(   0.55000,   0.00000,   0.00000  )

     Band symmetry, C_2v (mm2)  point group:

     e(  1 -  1) =    -18.66867  eV     1   --> A_1  D_1  S_1  
     e(  2 -  2) =    -15.47521  eV     1   --> B_2  D_4  S_4  
     e(  3 -  3) =    -13.90953  eV     1   --> A_1  D_1  S_1  
     e(  4 -  4) =     -6.10106  eV     1   --> B_1  D_3  S_3  
     e(  5 -  5) =     -2.31522  eV     1   --> A_2  D_2  S_2  
     e(  6 -  6) =      6.24973  eV     1   --> A_1  D_1  S_1  
     e(  7 -  7) =      6.45995  eV     1   --> B_1  D_3  S_3  
     e(  8 -  8) =      7.98607  eV     1   --> B_1  D_3  S_3  
     e(  9 -  9) =      8.24652  eV     1   --> A_1  D_1  S_1  
     e( 10 - 10) =      8.78148  eV     1   --> A_1  D_1  S_1  
     e( 11 - 11) =      8.78425  eV     1   --> B_2  D_4  S_4  
     e( 12 - 12) =      9.13542  eV     1   --> B_1  D_3  S_3  
     e( 13 - 13) =     10.10690  eV     1   --> A_1  D_1  S_1  
     e( 14 - 14) =     11.20881  eV     1   --> B_1  D_3  S_3  
     e( 15 - 15) =     12.56833  eV     1   --> A_1  D_1  S_1  
     e( 16 - 16) =     12.67134  eV     1   --> B_2  D_4  S_4  
     e( 17 - 17) =     12.91706  eV     1   --> A_1  D_1  S_1  
     e( 18 - 18) =     12.95311  eV     1   --> A_2  D_2  S_2  
     e( 19 - 19) =     13.44034  eV     1   --> B_1  D_3  S_3  
     e( 20 - 20) =     14.20916  eV     1   -->   ?

 **************************************************************************

 **************************************************************************

                    xk=(   0.56667,   0.00000,   0.00000  )

     Band symmetry, C_2v (mm2)  point group:

     e(  1 -  1) =    -18.38168  eV     1   --> A_1  D_1  S_1  
     e(  2 -  2) =    -15.69413  eV     1   --> B_2  D_4  S_4  
     e(  3 -  3) =    -14.11192  eV     1   --> A_1  D_1  S_1  
     e(  4 -  4) =     -5.81105  eV     1   --> B_1  D_3  S_3  
     e(  5 -  5) =     -2.61505  eV     1   --> A_2  D_2  S_2  
     e(  6 -  6) =      6.55176  eV     1   --> B_1  D_3  S_3  
     e(  7 -  7) =      6.66914  eV     1   --> A_1  D_1  S_1  
     e(  8 -  8) =      8.28811  eV     1   --> B_1  D_3  S_3  
     e(  9 -  9) =      8.67325  eV     1   --> A_1  D_1  S_1  
     e( 10 - 10) =      8.84132  eV     1   --> B_2  D_4  S_4  
     e( 11 - 11) =      8.99239  eV     1   --> A_1  D_1  S_1  
     e( 12 - 12) =      9.47645  eV     1   --> B_1  D_3  S_3  
     e( 13 - 13) =     10.53201  eV     1   --> A_1  D_1  S_1  
     e( 14 - 14) =     11.58798  eV     1   --> B_1  D_3  S_3  
     e( 15 - 15) =     12.40146  eV     1   --> B_2  D_4  S_4  
     e( 16 - 16) =     12.50683  eV     1   --> A_1  D_1  S_1  
     e( 17 - 17) =     12.59618  eV     1   --> A_2  D_2  S_2  
     e( 18 - 18) =     13.08013  eV     1   --> A_1  D_1  S_1  
     e( 19 - 19) =     13.18019  eV     1   --> B_1  D_3  S_3  
     e( 20 - 20) =     13.86914  eV     1   --> B_2  D_4  S_4  

 **************************************************************************

 **************************************************************************

                    xk=(   0.58333,   0.00000,   0.00000  )

     Band symmetry, C_2v (mm2)  point group:

     e(  1 -  1) =    -18.09446  eV     1   --> A_1  D_1  S_1  
     e(  2 -  2) =    -15.90535  eV     1   --> B_2  D_4  S_4  
     e(  3 -  3) =    -14.30125  eV     1   --> A_1  D_1  S_1  
     e(  4 -  4) =     -5.52436  eV     1   --> B_1  D_3  S_3  
     e(  5 -  5) =     -2.90545  eV     1   --> A_2  D_2  S_2  
     e(  6 -  6) =      6.57176  eV     1   --> B_1  D_3  S_3  
     e(  7 -  7) =      7.09060  eV     1   --> A_1  D_1  S_1  
     e(  8 -  8) =      8.64115  eV     1   --> B_1  D_3  S_3  
     e(  9 -  9) =      8.88216  eV     1   --> B_2  D_4  S_4  
     e( 10 - 10) =      9.01528  eV     1   --> A_1  D_1  S_1  
     e( 11 - 11) =      9.26787  eV     1   --> A_1  D_1  S_1  
     e( 12 - 12) =      9.86940  eV     1   --> B_1  D_3  S_3  
     e( 13 - 13) =     10.95305  eV     1   --> A_1  D_1  S_1  
     e( 14 - 14) =     11.95531  eV     1   --> B_1  D_3  S_3  
     e( 15 - 15) =     12.15410  eV     1   --> B_2  D_4  S_4  
     e( 16 - 16) =     12.25207  eV     1   --> A_2  D_2  S_2  
     e( 17 - 17) =     12.29644  eV     1   --> A_1  D_1  S_1  
     e( 18 - 18) =     12.91561  eV     1   --> B_1  D_3  S_3  
     e( 19 - 19) =     13.32865  eV     1   --> A_1  D_1  S_1  
     e( 20 - 20) =     13.54396  eV     1   --> B_2  D_4  S_4  

 **************************************************************************

 **************************************************************************

                    xk=(   0.60000,   0.00000,   0.00000  )

     Band symmetry, C_2v (mm2)  point group:

     e(  1 -  1) =    -17.81016  eV     1   --> A_1  D_1  S_1  
     e(  2 -  2) =    -16.10877  eV     1   --> B_2  D_4  S_4  
     e(  3 -  3) =    -14.47442  eV     1   --> A_1  D_1  S_1  
     e(  4 -  4) =     -5.24280  eV     1   --> B_1  D_3  S_3  
     e(  5 -  5) =     -3.18615  eV     1   --> A_2  D_2  S_2  
     e(  6 -  6) =      6.54957  eV     1   --> B_1  D_3  S_3  
     e(  7 -  7) =      7.50810  eV     1   --> A_1  D_1  S_1  
     e(  8 -  8) =      8.90325  eV     1   --> B_2  D_4  S_4  
     e(  9 -  9) =      9.03847  eV     1   --> B_1  D_3  S_3  
     e( 10 - 10) =      9.18557  eV     1   --> A_1  D_1  S_1  
     e( 11 - 11) =      9.68487  eV     1   --> A_1  D_1  S_1  
     e( 12 - 12) =     10.29387  eV     1   --> B_1  D_3  S_3  
     e( 13 - 13) =     11.34539  eV     1   --> A_1  D_1  S_1  
     e( 14 - 14) =     11.92091  eV     1   --> A_2  D_2  S_2  
     e( 15 - 15) =     11.93132  eV     1   --> B_2  D_4  S_4  
     e( 16 - 16) =     12.12645  eV     1   --> A_1  D_1  S_1  
     e( 17 - 17) =     12.19667  eV     1   --> B_1  D_3  S_3  
     e( 18 - 18) =     12.78047  eV     1   --> B_1  D_3  S_3  
     e( 19 - 19) =     13.21664  eV     1   --> A_1  D_1  S_1  
     e( 20 - 20) =     13.23761  eV     1   --> B_2  D_4  S_4  

 **************************************************************************

 **************************************************************************

                    xk=(   0.61667,   0.00000,   0.00000  )

     Band symmetry, C_2v (mm2)  point group:

     e(  1 -  1) =    -17.53358  eV     1   --> A_1  D_1  S_1  
     e(  2 -  2) =    -16.30431  eV     1   --> B_2  D_4  S_4  
     e(  3 -  3) =    -14.62682  eV     1   --> A_1  D_1  S_1  
     e(  4 -  4) =     -4.96828  eV     1   --> B_1  D_3  S_3  
     e(  5 -  5) =     -3.45689  eV     1   --> A_2  D_2  S_2  
     e(  6 -  6) =      6.51041  eV     1   --> B_1  D_3  S_3  
     e(  7 -  7) =      7.91095  eV     1   --> A_1  D_1  S_1  
     e(  8 -  8) =      8.90130  eV     1   --> B_2  D_4  S_4  
     e(  9 -  9) =      9.27517  eV     1   --> A_1  D_1  S_1  
     e( 10 - 10) =      9.46692  eV     1   --> B_1  D_3  S_3  
     e( 11 - 11) =     10.14174  eV     1   --> A_1  D_1  S_1  
     e( 12 - 12) =     10.73319  eV     1   --> B_1  D_3  S_3  
     e( 13 - 13) =     11.60280  eV     1   --> A_2  D_2  S_2  
     e( 14 - 14) =     11.61606  eV     1   --> A_1  D_1  S_1  
     e( 15 - 15) =     11.73357  eV     1   --> B_2  D_4  S_4  
     e( 16 - 16) =     12.07845  eV     1   --> A_1  D_1  S_1  
     e( 17 - 17) =     12.11626  eV     1   --> B_1  D_3  S_3  
     e( 18 - 18) =     12.93734  eV     1   --> B_1  D_3  S_3  
     e( 19 - 19) =     12.95290  eV     1   --> B_2  D_4  S_4  
     e( 20 - 20) =     12.99837  eV     1   --> A_1  D_1  S_1  

 **************************************************************************

 **************************************************************************

                    xk=(   0.63333,   0.00000,   0.00000  )

     Band symmetry, C_2v (mm2)  point group:

     e(  1 -  1) =    -17.27208  eV     1   --> A_1  D_1  S_1  
     e(  2 -  2) =    -16.49189  eV     1   --> B_2  D_4  S_4  
     e(  3 -  3) =    -14.75132  eV     1   --> A_1  D_1  S_1  
     e(  4 -  4) =     -4.70281  eV     1   --> B_1  D_3  S_3  
     e(  5 -  5) =     -3.71744  eV     1   --> A_2  D_2  S_2  
     e(  6 -  6) =      6.47128  eV     1   --> B_1  D_3  S_3  
     e(  7 -  7) =      8.27922  eV     1   --> A_1  D_1  S_1  
     e(  8 -  8) =      8.87400  eV     1   --> B_2  D_4  S_4  
     e(  9 -  9) =      9.31635  eV     1   --> A_1  D_1  S_1  
     e( 10 - 10) =      9.91299  eV     1   --> B_1  D_3  S_3  
     e( 11 - 11) =     10.59388  eV     1   --> A_1  D_1  S_1  
     e( 12 - 12) =     11.15640  eV     1   --> B_1  D_3  S_3  
     e( 13 - 13) =     11.29786  eV     1   --> A_2  D_2  S_2  
     e( 14 - 14) =     11.55871  eV     1   --> B_2  D_4  S_4  
     e( 15 - 15) =     11.65051  eV     1   --> A_1  D_1  S_1  
     e( 16 - 16) =     11.93053  eV     1   --> B_1  D_3  S_3  
     e( 17 - 17) =     12.18964  eV     1   --> A_1  D_1  S_1  
     e( 18 - 18) =     12.69369  eV     1   --> B_2  D_4  S_4  
     e( 19 - 19) =     12.76573  eV     1   --> A_2  D_2  S_2  
     e( 20 - 20) =     12.88399  eV     1   --> A_1  D_1  S_1  

 **************************************************************************

 **************************************************************************

                    xk=(   0.65000,   0.00000,   0.00000  )

     Band symmetry, C_2v (mm2)  point group:

     e(  1 -  1) =    -17.03676  eV     1   --> A_1  D_1  S_1  
     e(  2 -  2) =    -16.67144  eV     1   --> B_2  D_4  S_4  
     e(  3 -  3) =    -14.83714  eV     1   --> A_1  D_1  S_1  
     e(  4 -  4) =     -4.44843  eV     1   --> B_1  D_3  S_3  
     e(  5 -  5) =     -3.96757  eV     1   --> A_2  D_2  S_2  
     e(  6 -  6) =      6.44301  eV     1   --> B_1  D_3  S_3  
     e(  7 -  7) =      8.57526  eV     1   --> A_1  D_1  S_1  
     e(  8 -  8) =      8.82073  eV     1   --> B_2  D_4  S_4  
     e(  9 -  9) =      9.32799  eV     1   --> A_1  D_1  S_1  
     e( 10 - 10) =     10.35615  eV     1   --> B_1  D_3  S_3  
     e( 11 - 11) =     10.99568  eV     1   --> A_1  D_1  S_1  
     e( 12 - 12) =     11.00614  eV     1   --> A_2  D_2  S_2  
     e( 13 - 13) =     11.40104  eV     1   --> B_2  D_4  S_4  
     e( 14 - 14) =     11.40999  eV     1   --> B_1  D_3  S_3  
     e( 15 - 15) =     11.61962  eV     1   --> A_1  D_1  S_1  
     e( 16 - 16) =     11.91230  eV     1   --> B_1  D_3  S_3  
     e( 17 - 17) =     12.21088  eV     1   --> A_1  D_1  S_1  
     e( 18 - 18) =     12.46502  eV     1   --> B_2  D_4  S_4  
     e( 19 - 19) =     12.47187  eV     1   --> A_2  D_2  S_2  
     e( 20 - 20) =     12.94733  eV     1   --> B_1  D_3  S_3  

 **************************************************************************

 **************************************************************************

                    xk=(   0.66667,   0.00000,   0.00000  )

     point group D_3h (-62m)
     there are  6 classes
     the character table:

       E     2C3   3C2   s_h   2S3   3s_v 
A'_1   1.00  1.00  1.00  1.00  1.00  1.00
A'_2   1.00  1.00 -1.00  1.00  1.00 -1.00
E'     2.00 -1.00  0.00  2.00 -1.00  0.00
A''1   1.00  1.00  1.00 -1.00 -1.00 -1.00
A''2   1.00  1.00 -1.00 -1.00 -1.00  1.00
E''    2.00 -1.00  0.00 -2.00  1.00  0.00

     the symmetry operations in each class and the name of the first element:

     E        1
                                                                 
     2C3      3    4
                                                                 
     3C2      2    5    6
                                                                 
     s_h      7
                                                                 
     2S3      9   10
                                                                 
     3s_v     8   12   11
                                                                 

     Band symmetry, D_3h (-62m) point group:

     e(  1 -  2) =    -16.84291  eV     2   --> E'             
     e(  3 -  3) =    -14.86943  eV     1   --> A'_1           
     e(  4 -  5) =     -4.20710  eV     2   --> E''            
     e(  6 -  6) =      6.43251  eV     1   --> A''2           
     e(  7 -  8) =      8.74300  eV     2   --> E'             
     e(  9 -  9) =      9.33188  eV     1   --> A'_1           
     e( 10 - 11) =     10.72771  eV     2   --> E''            
     e( 12 - 13) =     11.25160  eV     2   --> E'             
     e( 14 - 14) =     11.38699  eV     1   --> A''2           
     e( 15 - 15) =     11.61060  eV     1   --> A'_1           
     e( 16 - 17) =     12.19150  eV     2   --> E''            
     e( 18 - 19) =     12.27239  eV     2   --> E'             
     e( 20 - 20) =     12.85940  eV     1   --> A''2           

 **************************************************************************

 **************************************************************************

                    xk=(   0.65833,   0.01443,   0.00000  )

     point group C_2v (mm2) 
     there are  4 classes
     the character table:

       E     C2    s_v   s_v' 
A_1    1.00  1.00  1.00  1.00
A_2    1.00  1.00 -1.00 -1.00
B_1    1.00 -1.00  1.00 -1.00
B_2    1.00 -1.00 -1.00  1.00

     the symmetry operations in each class and the name of the first element:

     E        1
                                                                 
     C2       2
                                                                 
     s_v      4
                                                                 
     s_v'     3
                                                                 

     Band symmetry, C_2v (mm2)  point group:

     e(  1 -  1) =    -17.00625  eV     1   --> B_2  D_4  S_4  
     e(  2 -  2) =    -16.70674  eV     1   --> A_1  D_1  S_1  
     e(  3 -  3) =    -14.83253  eV     1   --> A_1  D_1  S_1  
     e(  4 -  4) =     -4.43585  eV     1   --> A_2  D_2  S_2  
     e(  5 -  5) =     -3.98068  eV     1   --> B_1  D_3  S_3  
     e(  6 -  6) =      6.44412  eV     1   --> B_1  D_3  S_3  
     e(  7 -  7) =      8.64423  eV     1   --> B_2  D_4  S_4  
     e(  8 -  8) =      8.76022  eV     1   --> A_1  D_1  S_1  
     e(  9 -  9) =      9.30808  eV     1   --> A_1  D_1  S_1  
     e( 10 - 10) =     10.46264  eV     1   --> A_2  D_2  S_2  
     e( 11 - 11) =     10.81458  eV     1   --> B_1  D_3  S_3  
     e( 12 - 12) =     11.10070  eV     1   --> B_2  D_4  S_4  
     e( 13 - 13) =     11.27650  eV     1   --> A_1  D_1  S_1  
     e( 14 - 14) =     11.53338  eV     1   --> B_1  D_3  S_3  
     e( 15 - 15) =     11.66849  eV     1   --> A_1  D_1  S_1  
     e( 16 - 16) =     11.92468  eV     1   --> A_2  D_2  S_2  
     e( 17 - 17) =     12.11930  eV     1   --> B_2  D_4  S_4  
     e( 18 - 18) =     12.33882  eV     1   --> B_1  D_3  S_3  
     e( 19 - 19) =     12.52968  eV     1   --> A_1  D_1  S_1  
     e( 20 - 20) =     12.99639  eV     1   --> A_1  D_1  S_1  

 **************************************************************************

 **************************************************************************

                    xk=(   0.65000,   0.02887,   0.00000  )

     Band symmetry, C_2v (mm2)  point group:

     e(  1 -  1) =    -17.16141  eV     1   --> B_2  D_4  S_4  
     e(  2 -  2) =    -16.63660  eV     1   --> A_1  D_1  S_1  
     e(  3 -  3) =    -14.71874  eV     1   --> A_1  D_1  S_1  
     e(  4 -  4) =     -4.65365  eV     1   --> A_2  D_2  S_2  
     e(  5 -  5) =     -3.77077  eV     1   --> B_1  D_3  S_3  
     e(  6 -  6) =      6.48031  eV     1   --> B_1  D_3  S_3  
     e(  7 -  7) =      8.52902  eV     1   --> B_2  D_4  S_4  
     e(  8 -  8) =      8.67367  eV     1   --> A_1  D_1  S_1  
     e(  9 -  9) =      9.19265  eV     1   --> A_1  D_1  S_1  
     e( 10 - 10) =     10.21097  eV     1   --> A_2  D_2  S_2  
     e( 11 - 11) =     10.67231  eV     1   --> B_1  D_3  S_3  
     e( 12 - 12) =     10.94202  eV     1   --> B_2  D_4  S_4  
     e( 13 - 13) =     11.12475  eV     1   --> A_1  D_1  S_1  
     e( 14 - 14) =     11.67143  eV     1   --> A_2  D_2  S_2  
     e( 15 - 15) =     11.75173  eV     1   --> B_1  D_3  S_3  
     e( 16 - 16) =     11.89460  eV     1   --> A_1  D_1  S_1  
     e( 17 - 17) =     12.00366  eV     1   --> B_2  D_4  S_4  
     e( 18 - 18) =     12.42813  eV     1   --> B_1  D_3  S_3  
     e( 19 - 19) =     12.64946  eV     1   --> A_1  D_1  S_1  
     e( 20 - 20) =     13.21830  eV     1   --> A_1  D_1  S_1  

 **************************************************************************

 **************************************************************************

                    xk=(   0.64167,   0.04330,   0.00000  )

     Band symmetry, C_2v (mm2)  point group:

     e(  1 -  1) =    -17.30835  eV     1   --> B_2  D_4  S_4  
     e(  2 -  2) =    -16.62619  eV     1   --> A_1  D_1  S_1  
     e(  3 -  3) =    -14.53516  eV     1   --> A_1  D_1  S_1  
     e(  4 -  4) =     -4.86038  eV     1   --> A_2  D_2  S_2  
     e(  5 -  5) =     -3.57867  eV     1   --> B_1  D_3  S_3  
     e(  6 -  6) =      6.54200  eV     1   --> B_1  D_3  S_3  
     e(  7 -  7) =      8.40235  eV     1   --> B_2  D_4  S_4  
     e(  8 -  8) =      8.52384  eV     1   --> A_1  D_1  S_1  
     e(  9 -  9) =      8.97539  eV     1   --> A_1  D_1  S_1  
     e( 10 - 10) =      9.97273  eV     1   --> A_2  D_2  S_2  
     e( 11 - 11) =     10.48577  eV     1   --> B_1  D_3  S_3  
     e( 12 - 12) =     10.77497  eV     1   --> B_2  D_4  S_4  
     e( 13 - 13) =     10.92643  eV     1   --> A_1  D_1  S_1  
     e( 14 - 14) =     11.43176  eV     1   --> A_2  D_2  S_2  
     e( 15 - 15) =     11.73544  eV     1   --> B_1  D_3  S_3  
     e( 16 - 16) =     11.91656  eV     1   --> B_2  D_4  S_4  
     e( 17 - 17) =     12.21232  eV     1   --> A_1  D_1  S_1  
     e( 18 - 18) =     12.58789  eV     1   --> A_1  D_1  S_1  
     e( 19 - 19) =     12.75190  eV     1   --> B_1  D_3  S_3  
     e( 20 - 20) =     13.53188  eV     1   --> B_2  D_4  S_4  

 **************************************************************************

 **************************************************************************

                    xk=(   0.63333,   0.05774,   0.00000  )

     Band symmetry, C_2v (mm2)  point group:

     e(  1 -  1) =    -17.44703  eV     1   --> B_2  D_4  S_4  
     e(  2 -  2) =    -16.65940  eV     1   --> A_1  D_1  S_1  
     e(  3 -  3) =    -14.29887  eV     1   --> A_1  D_1  S_1  
     e(  4 -  4) =     -5.05590  eV     1   --> A_2  D_2  S_2  
     e(  5 -  5) =     -3.40523  eV     1   --> B_1  D_3  S_3  
     e(  6 -  6) =      6.62862  eV     1   --> B_1  D_3  S_3  
     e(  7 -  7) =      8.26888  eV     1   --> B_2  D_4  S_4  
     e(  8 -  8) =      8.30898  eV     1   --> A_1  D_1  S_1  
     e(  9 -  9) =      8.70998  eV     1   --> A_1  D_1  S_1  
     e( 10 - 10) =      9.74798  eV     1   --> A_2  D_2  S_2  
     e( 11 - 11) =     10.29836  eV     1   --> B_1  D_3  S_3  
     e( 12 - 12) =     10.60300  eV     1   --> B_2  D_4  S_4  
     e( 13 - 13) =     10.72374  eV     1   --> A_1  D_1  S_1  
     e( 14 - 14) =     11.20571  eV     1   --> A_2  D_2  S_2  
     e( 15 - 15) =     11.60528  eV     1   --> B_1  D_3  S_3  
     e( 16 - 16) =     11.84513  eV     1   --> B_2  D_4  S_4  
     e( 17 - 17) =     12.30651  eV     1   --> A_1  D_1  S_1  
     e( 18 - 18) =     12.79426  eV     1   --> A_1  D_1  S_1  
     e( 19 - 19) =     13.15306  eV     1   --> B_1  D_3  S_3  
     e( 20 - 20) =     13.41379  eV     1   --> B_2  D_4  S_4  

 **************************************************************************

 **************************************************************************

                    xk=(   0.62500,   0.07217,   0.00000  )

     Band symmetry, C_2v (mm2)  point group:

     e(  1 -  1) =    -17.57744  eV     1   --> B_2  D_4  S_4  
     e(  2 -  2) =    -16.71975  eV     1   --> A_1  D_1  S_1  
     e(  3 -  3) =    -14.02747  eV     1   --> A_1  D_1  S_1  
     e(  4 -  4) =     -5.24008  eV     1   --> A_2  D_2  S_2  
     e(  5 -  5) =     -3.25086  eV     1   --> B_1  D_3  S_3  
     e(  6 -  6) =      6.73809  eV     1   --> B_1  D_3  S_3  
     e(  7 -  7) =      7.99992  eV     1   --> A_1  D_1  S_1  
     e(  8 -  8) =      8.13263  eV     1   --> B_2  D_4  S_4  
     e(  9 -  9) =      8.47054  eV     1   --> A_1  D_1  S_1  
     e( 10 - 10) =      9.53672  eV     1   --> A_2  D_2  S_2  
     e( 11 - 11) =     10.12110  eV     1   --> B_1  D_3  S_3  
     e( 12 - 12) =     10.43068  eV     1   --> B_2  D_4  S_4  
     e( 13 - 13) =     10.52751  eV     1   --> A_1  D_1  S_1  
     e( 14 - 14) =     10.99329  eV     1   --> A_2  D_2  S_2  
     e( 15 - 15) =     11.45513  eV     1   --> B_1  D_3  S_3  
     e( 16 - 16) =     11.77713  eV     1   --> B_2  D_4  S_4  
     e( 17 - 17) =     12.18239  eV     1   --> A_1  D_1  S_1  
     e( 18 - 18) =     13.23199  eV     1   --> A_2  D_2  S_2  
     e( 19 - 19) =     13.26630  eV     1   --> A_1  D_1  S_1  
     e( 20 - 20) =     13.33317  eV     1   --> B_2  D_4  S_4  

 **************************************************************************

 **************************************************************************

                    xk=(   0.61667,   0.08660,   0.00000  )

     Band symmetry, C_2v (mm2)  point group:

     e(  1 -  1) =    -17.69953  eV     1   --> B_2  D_4  S_4  
     e(  2 -  2) =    -16.79503  eV     1   --> A_1  D_1  S_1  
     e(  3 -  3) =    -13.73457  eV     1   --> A_1  D_1  S_1  
     e(  4 -  4) =     -5.41282  eV     1   --> A_2  D_2  S_2  
     e(  5 -  5) =     -3.11544  eV     1   --> B_1  D_3  S_3  
     e(  6 -  6) =      6.86671  eV     1   --> B_1  D_3  S_3  
     e(  7 -  7) =      7.60762  eV     1   --> A_1  D_1  S_1  
     e(  8 -  8) =      7.99687  eV     1   --> B_2  D_4  S_4  
     e(  9 -  9) =      8.27788  eV     1   --> A_1  D_1  S_1  
     e( 10 - 10) =      9.33900  eV     1   --> A_2  D_2  S_2  
     e( 11 - 11) =      9.95854  eV     1   --> B_1  D_3  S_3  
     e( 12 - 12) =     10.26196  eV     1   --> B_2  D_4  S_4  
     e( 13 - 13) =     10.34113  eV     1   --> A_1  D_1  S_1  
     e( 14 - 14) =     10.79451  eV     1   --> A_2  D_2  S_2  
     e( 15 - 15) =     11.30993  eV     1   --> B_1  D_3  S_3  
     e( 16 - 16) =     11.70429  eV     1   --> B_2  D_4  S_4  
     e( 17 - 17) =     12.03603  eV     1   --> A_1  D_1  S_1  
     e( 18 - 18) =     13.03504  eV     1   --> A_2  D_2  S_2  
     e( 19 - 19) =     13.28935  eV     1   --> B_2  D_4  S_4  
     e( 20 - 20) =     13.45595  eV     1   --> B_1  D_3  S_3  

 **************************************************************************

 **************************************************************************

                    xk=(   0.60833,   0.10104,   0.00000  )

     Band symmetry, C_2v (mm2)  point group:

     e(  1 -  1) =    -17.81329  eV     1   --> B_2  D_4  S_4  
     e(  2 -  2) =    -16.87717  eV     1   --> A_1  D_1  S_1  
     e(  3 -  3) =    -13.42978  eV     1   --> A_1  D_1  S_1  
     e(  4 -  4) =     -5.57403  eV     1   --> A_2  D_2  S_2  
     e(  5 -  5) =     -2.99841  eV     1   --> B_1  D_3  S_3  
     e(  6 -  6) =      7.00907  eV     1   --> B_1  D_3  S_3  
     e(  7 -  7) =      7.17320  eV     1   --> A_1  D_1  S_1  
     e(  8 -  8) =      7.86420  eV     1   --> B_2  D_4  S_4  
     e(  9 -  9) =      8.11257  eV     1   --> A_1  D_1  S_1  
     e( 10 - 10) =      9.15484  eV     1   --> A_2  D_2  S_2  
     e( 11 - 11) =      9.81332  eV     1   --> B_1  D_3  S_3  
     e( 12 - 12) =     10.09976  eV     1   --> B_2  D_4  S_4  
     e( 13 - 13) =     10.16594  eV     1   --> A_1  D_1  S_1  
     e( 14 - 14) =     10.60939  eV     1   --> A_2  D_2  S_2  
     e( 15 - 15) =     11.17891  eV     1   --> B_1  D_3  S_3  
[...]
     e( 13 - 13) =      6.55142  eV     1   --> A_1  D_1  S_1  
     e( 14 - 14) =      7.20383  eV     1   --> B_1  D_3  S_3  
     e( 15 - 15) =      7.72938  eV     1   --> B_2  D_4  S_4  
     e( 16 - 16) =      9.87296  eV     1   --> A_1  D_1  S_1  
     e( 17 - 17) =     10.03351  eV     1   --> A_1  D_1  S_1  
     e( 18 - 18) =     11.55988  eV     1   --> B_2  D_4  S_4  
     e( 19 - 19) =     13.80708  eV     1   --> A_1  D_1  S_1  
     e( 20 - 20) =     15.90810  eV     1   --> B_2  D_4  S_4  

 **************************************************************************

 **************************************************************************

                    xk=(   0.16667,   0.09623,   0.00000  )

     Band symmetry, C_2v (mm2)  point group:

     e(  1 -  1) =    -23.16703  eV     1   --> A_1  D_1  S_1  
     e(  2 -  2) =    -11.11927  eV     1   --> B_2  D_4  S_4  
     e(  3 -  3) =     -9.56836  eV     1   --> A_1  D_1  S_1  
     e(  4 -  4) =     -8.41960  eV     1   --> B_1  D_3  S_3  
     e(  5 -  5) =     -0.07724  eV     1   --> A_1  D_1  S_1  
     e(  6 -  6) =      0.74278  eV     1   --> B_2  D_4  S_4  
     e(  7 -  7) =      1.72943  eV     1   --> A_1  D_1  S_1  
     e(  8 -  8) =      2.14420  eV     1   --> B_2  D_4  S_4  
     e(  9 -  9) =      3.63475  eV     1   --> A_1  D_1  S_1  
     e( 10 - 10) =      4.21933  eV     1   --> A_1  D_1  S_1  
     e( 11 - 11) =      4.42536  eV     1   --> B_2  D_4  S_4  
     e( 12 - 12) =      5.25728  eV     1   --> B_2  D_4  S_4  
     e( 13 - 13) =      6.36189  eV     1   --> A_1  D_1  S_1  
     e( 14 - 14) =      6.73267  eV     1   --> B_1  D_3  S_3  
     e( 15 - 15) =      7.54543  eV     1   --> B_2  D_4  S_4  
     e( 16 - 16) =      9.68023  eV     1   --> A_1  D_1  S_1  
     e( 17 - 17) =      9.78191  eV     1   --> A_1  D_1  S_1  
     e( 18 - 18) =     11.38924  eV     1   --> B_2  D_4  S_4  
     e( 19 - 19) =     13.62035  eV     1   --> A_1  D_1  S_1  
     e( 20 - 20) =     15.81817  eV     1   --> B_2  D_4  S_4  

 **************************************************************************

 **************************************************************************

                    xk=(   0.15000,   0.08660,   0.00000  )

     Band symmetry, C_2v (mm2)  point group:

     e(  1 -  1) =    -23.29198  eV     1   --> A_1  D_1  S_1  
     e(  2 -  2) =    -11.26743  eV     1   --> B_2  D_4  S_4  
     e(  3 -  3) =     -9.18809  eV     1   --> A_1  D_1  S_1  
     e(  4 -  4) =     -8.24214  eV     1   --> B_1  D_3  S_3  
     e(  5 -  5) =     -0.24766  eV     1   --> A_1  D_1  S_1  
     e(  6 -  6) =      0.57061  eV     1   --> B_2  D_4  S_4  
     e(  7 -  7) =      1.55565  eV     1   --> A_1  D_1  S_1  
     e(  8 -  8) =      1.97163  eV     1   --> B_2  D_4  S_4  
     e(  9 -  9) =      3.46881  eV     1   --> A_1  D_1  S_1  
     e( 10 - 10) =      4.24105  eV     1   --> A_1  D_1  S_1  
     e( 11 - 11) =      4.25725  eV     1   --> B_2  D_4  S_4  
     e( 12 - 12) =      5.62020  eV     1   --> B_2  D_4  S_4  
     e( 13 - 13) =      6.19007  eV     1   --> A_1  D_1  S_1  
     e( 14 - 14) =      6.28975  eV     1   --> B_1  D_3  S_3  
     e( 15 - 15) =      7.37860  eV     1   --> B_2  D_4  S_4  
     e( 16 - 16) =      9.49363  eV     1   --> A_1  D_1  S_1  
     e( 17 - 17) =      9.55925  eV     1   --> A_1  D_1  S_1  
     e( 18 - 18) =     11.23307  eV     1   --> B_2  D_4  S_4  
     e( 19 - 19) =     13.45096  eV     1   --> A_1  D_1  S_1  
     e( 20 - 20) =     15.71587  eV     1   --> B_2  D_4  S_4  

 **************************************************************************

 **************************************************************************

                    xk=(   0.13333,   0.07698,   0.00000  )

     Band symmetry, C_2v (mm2)  point group:

     e(  1 -  1) =    -23.40392  eV     1   --> A_1  D_1  S_1  
     e(  2 -  2) =    -11.40046  eV     1   --> B_2  D_4  S_4  
     e(  3 -  3) =     -8.82955  eV     1   --> A_1  D_1  S_1  
     e(  4 -  4) =     -8.07029  eV     1   --> B_1  D_3  S_3  
     e(  5 -  5) =     -0.40018  eV     1   --> A_1  D_1  S_1  
     e(  6 -  6) =      0.41641  eV     1   --> B_2  D_4  S_4  
     e(  7 -  7) =      1.40015  eV     1   --> A_1  D_1  S_1  
     e(  8 -  8) =      1.81705  eV     1   --> B_2  D_4  S_4  
     e(  9 -  9) =      3.31810  eV     1   --> A_1  D_1  S_1  
     e( 10 - 10) =      4.10529  eV     1   --> B_2  D_4  S_4  
     e( 11 - 11) =      4.25496  eV     1   --> A_1  D_1  S_1  
     e( 12 - 12) =      5.87856  eV     1   --> B_1  D_3  S_3  
     e( 13 - 13) =      5.95846  eV     1   --> B_2  D_4  S_4  
     e( 14 - 14) =      6.03594  eV     1   --> A_1  D_1  S_1  
     e( 15 - 15) =      7.22903  eV     1   --> B_2  D_4  S_4  
     e( 16 - 16) =      9.29878  eV     1   --> A_1  D_1  S_1  
     e( 17 - 17) =      9.38404  eV     1   --> A_1  D_1  S_1  
     e( 18 - 18) =     11.09207  eV     1   --> B_2  D_4  S_4  
     e( 19 - 19) =     13.29903  eV     1   --> A_1  D_1  S_1  
     e( 20 - 20) =     15.61202  eV     1   --> B_2  D_4  S_4  

 **************************************************************************

 **************************************************************************

                    xk=(   0.11667,   0.06736,   0.00000  )

     Band symmetry, C_2v (mm2)  point group:

     e(  1 -  1) =    -23.50282  eV     1   --> A_1  D_1  S_1  
     e(  2 -  2) =    -11.51819  eV     1   --> B_2  D_4  S_4  
     e(  3 -  3) =     -8.49699  eV     1   --> A_1  D_1  S_1  
     e(  4 -  4) =     -7.90704  eV     1   --> B_1  D_3  S_3  
     e(  5 -  5) =     -0.53478  eV     1   --> A_1  D_1  S_1  
     e(  6 -  6) =      0.28024  eV     1   --> B_2  D_4  S_4  
     e(  7 -  7) =      1.26292  eV     1   --> A_1  D_1  S_1  
     e(  8 -  8) =      1.68055  eV     1   --> B_2  D_4  S_4  
     e(  9 -  9) =      3.18424  eV     1   --> A_1  D_1  S_1  
     e( 10 - 10) =      3.97070  eV     1   --> B_2  D_4  S_4  
     e( 11 - 11) =      4.25927  eV     1   --> A_1  D_1  S_1  
     e( 12 - 12) =      5.50273  eV     1   --> B_1  D_3  S_3  
     e( 13 - 13) =      5.89949  eV     1   --> A_1  D_1  S_1  
     e( 14 - 14) =      6.26755  eV     1   --> B_2  D_4  S_4  
     e( 15 - 15) =      7.09685  eV     1   --> B_2  D_4  S_4  
     e( 16 - 16) =      9.11237  eV     1   --> A_1  D_1  S_1  
     e( 17 - 17) =      9.24282  eV     1   --> A_1  D_1  S_1  
     e( 18 - 18) =     10.96677  eV     1   --> B_2  D_4  S_4  
     e( 19 - 19) =     13.16467  eV     1   --> A_1  D_1  S_1  
     e( 20 - 20) =     15.51299  eV     1   --> B_2  D_4  S_4  

 **************************************************************************

 **************************************************************************

                    xk=(   0.10000,   0.05774,   0.00000  )

     Band symmetry, C_2v (mm2)  point group:

     e(  1 -  1) =    -23.58862  eV     1   --> A_1  D_1  S_1  
     e(  2 -  2) =    -11.62049  eV     1   --> B_2  D_4  S_4  
     e(  3 -  3) =     -8.19496  eV     1   --> A_1  D_1  S_1  
     e(  4 -  4) =     -7.75561  eV     1   --> B_1  D_3  S_3  
     e(  5 -  5) =     -0.65144  eV     1   --> A_1  D_1  S_1  
     e(  6 -  6) =      0.16217  eV     1   --> B_2  D_4  S_4  
     e(  7 -  7) =      1.14399  eV     1   --> A_1  D_1  S_1  
     e(  8 -  8) =      1.56219  eV     1   --> B_2  D_4  S_4  
     e(  9 -  9) =      3.06784  eV     1   --> A_1  D_1  S_1  
     e( 10 - 10) =      3.85383  eV     1   --> B_2  D_4  S_4  
     e( 11 - 11) =      4.25419  eV     1   --> A_1  D_1  S_1  
     e( 12 - 12) =      5.16605  eV     1   --> B_1  D_3  S_3  
     e( 13 - 13) =      5.78078  eV     1   --> A_1  D_1  S_1  
     e( 14 - 14) =      6.54389  eV     1   --> B_2  D_4  S_4  
     e( 15 - 15) =      6.98218  eV     1   --> B_2  D_4  S_4  
     e( 16 - 16) =      8.94880  eV     1   --> A_1  D_1  S_1  
     e( 17 - 17) =      9.12334  eV     1   --> A_1  D_1  S_1  
     e( 18 - 18) =     10.85755  eV     1   --> B_2  D_4  S_4  
     e( 19 - 19) =     13.04796  eV     1   --> A_1  D_1  S_1  
     e( 20 - 20) =     15.42264  eV     1   --> B_2  D_4  S_4  

 **************************************************************************

 **************************************************************************

                    xk=(   0.08333,   0.04811,   0.00000  )

     Band symmetry, C_2v (mm2)  point group:

     e(  1 -  1) =    -23.66129  eV     1   --> A_1  D_1  S_1  
     e(  2 -  2) =    -11.70722  eV     1   --> B_2  D_4  S_4  
     e(  3 -  3) =     -7.92821  eV     1   --> A_1  D_1  S_1  
     e(  4 -  4) =     -7.61939  eV     1   --> B_1  D_3  S_3  
     e(  5 -  5) =     -0.75015  eV     1   --> A_1  D_1  S_1  
     e(  6 -  6) =      0.06221  eV     1   --> B_2  D_4  S_4  
     e(  7 -  7) =      1.04336  eV     1   --> A_1  D_1  S_1  
     e(  8 -  8) =      1.46200  eV     1   --> B_2  D_4  S_4  
     e(  9 -  9) =      2.96919  eV     1   --> A_1  D_1  S_1  
     e( 10 - 10) =      3.75482  eV     1   --> B_2  D_4  S_4  
     e( 11 - 11) =      4.24130  eV     1   --> A_1  D_1  S_1  
     e( 12 - 12) =      4.87236  eV     1   --> B_1  D_3  S_3  
     e( 13 - 13) =      5.67991  eV     1   --> A_1  D_1  S_1  
     e( 14 - 14) =      6.78382  eV     1   --> B_2  D_4  S_4  
     e( 15 - 15) =      6.88551  eV     1   --> B_2  D_4  S_4  
     e( 16 - 16) =      8.81178  eV     1   --> A_1  D_1  S_1  
     e( 17 - 17) =      9.02294  eV     1   --> A_1  D_1  S_1  
     e( 18 - 18) =     10.76470  eV     1   --> B_2  D_4  S_4  
     e( 19 - 19) =     12.94901  eV     1   --> A_1  D_1  S_1  
     e( 20 - 20) =     15.34341  eV     1   --> B_2  D_4  S_4  

 **************************************************************************

 **************************************************************************

                    xk=(   0.06667,   0.03849,   0.00000  )

     Band symmetry, C_2v (mm2)  point group:

     e(  1 -  1) =    -23.72078  eV     1   --> A_1  D_1  S_1  
     e(  2 -  2) =    -11.77831  eV     1   --> B_2  D_4  S_4  
     e(  3 -  3) =     -7.70153  eV     1   --> A_1  D_1  S_1  
     e(  4 -  4) =     -7.50182  eV     1   --> B_1  D_3  S_3  
     e(  5 -  5) =     -0.83091  eV     1   --> A_1  D_1  S_1  
     e(  6 -  6) =     -0.01961  eV     1   --> B_2  D_4  S_4  
     e(  7 -  7) =      0.96103  eV     1   --> A_1  D_1  S_1  
     e(  8 -  8) =      1.37999  eV     1   --> B_2  D_4  S_4  
     e(  9 -  9) =      2.88841  eV     1   --> A_1  D_1  S_1  
     e( 10 - 10) =      3.67374  eV     1   --> B_2  D_4  S_4  
     e( 11 - 11) =      4.22335  eV     1   --> A_1  D_1  S_1  
     e( 12 - 12) =      4.62549  eV     1   --> B_1  D_3  S_3  
     e( 13 - 13) =      5.59703  eV     1   --> A_1  D_1  S_1  
     e( 14 - 14) =      6.80484  eV     1   --> B_2  D_4  S_4  
     e( 15 - 15) =      6.98642  eV     1   --> B_2  D_4  S_4  
     e( 16 - 16) =      8.70199  eV     1   --> A_1  D_1  S_1  
     e( 17 - 17) =      8.94097  eV     1   --> A_1  D_1  S_1  
     e( 18 - 18) =     10.68843  eV     1   --> B_2  D_4  S_4  
     e( 19 - 19) =     12.86789  eV     1   --> A_1  D_1  S_1  
     e( 20 - 20) =     15.27692  eV     1   --> B_2  D_4  S_4  

 **************************************************************************

 **************************************************************************

                    xk=(   0.05000,   0.02887,   0.00000  )

     Band symmetry, C_2v (mm2)  point group:

     e(  1 -  1) =    -23.76709  eV     1   --> A_1  D_1  S_1  
     e(  2 -  2) =    -11.83368  eV     1   --> B_2  D_4  S_4  
     e(  3 -  3) =     -7.51951  eV     1   --> A_1  D_1  S_1  
     e(  4 -  4) =     -7.40622  eV     1   --> B_1  D_3  S_3  
     e(  5 -  5) =     -0.89372  eV     1   --> A_1  D_1  S_1  
     e(  6 -  6) =     -0.08326  eV     1   --> B_2  D_4  S_4  
     e(  7 -  7) =      0.89699  eV     1   --> A_1  D_1  S_1  
     e(  8 -  8) =      1.31620  eV     1   --> B_2  D_4  S_4  
     e(  9 -  9) =      2.82555  eV     1   --> A_1  D_1  S_1  
     e( 10 - 10) =      3.61065  eV     1   --> B_2  D_4  S_4  
     e( 11 - 11) =      4.20383  eV     1   --> A_1  D_1  S_1  
     e( 12 - 12) =      4.42903  eV     1   --> B_1  D_3  S_3  
     e( 13 - 13) =      5.53234  eV     1   --> A_1  D_1  S_1  
     e( 14 - 14) =      6.74309  eV     1   --> B_2  D_4  S_4  
     e( 15 - 15) =      7.14608  eV     1   --> B_2  D_4  S_4  
     e( 16 - 16) =      8.61876  eV     1   --> A_1  D_1  S_1  
     e( 17 - 17) =      8.87723  eV     1   --> A_1  D_1  S_1  
     e( 18 - 18) =     10.62894  eV     1   --> B_2  D_4  S_4  
     e( 19 - 19) =     12.80470  eV     1   --> A_1  D_1  S_1  
     e( 20 - 20) =     15.22427  eV     1   --> B_2  D_4  S_4  

 **************************************************************************

 **************************************************************************

                    xk=(   0.03333,   0.01925,   0.00000  )

     Band symmetry, C_2v (mm2)  point group:

     e(  1 -  1) =    -23.80017  eV     1   --> A_1  D_1  S_1  
     e(  2 -  2) =    -11.87327  eV     1   --> B_2  D_4  S_4  
     e(  3 -  3) =     -7.38620  eV     1   --> A_1  D_1  S_1  
     e(  4 -  4) =     -7.33554  eV     1   --> B_1  D_3  S_3  
     e(  5 -  5) =     -0.93857  eV     1   --> A_1  D_1  S_1  
     e(  6 -  6) =     -0.12873  eV     1   --> B_2  D_4  S_4  
     e(  7 -  7) =      0.85126  eV     1   --> A_1  D_1  S_1  
     e(  8 -  8) =      1.27062  eV     1   --> B_2  D_4  S_4  
     e(  9 -  9) =      2.78066  eV     1   --> A_1  D_1  S_1  
     e( 10 - 10) =      3.56557  eV     1   --> B_2  D_4  S_4  
     e( 11 - 11) =      4.18644  eV     1   --> A_1  D_1  S_1  
     e( 12 - 12) =      4.28614  eV     1   --> B_1  D_3  S_3  
     e( 13 - 13) =      5.48600  eV     1   --> A_1  D_1  S_1  
     e( 14 - 14) =      6.69886  eV     1   --> B_2  D_4  S_4  
     e( 15 - 15) =      7.26198  eV     1   --> B_2  D_4  S_4  
     e( 16 - 16) =      8.56078  eV     1   --> A_1  D_1  S_1  
     e( 17 - 17) =      8.83169  eV     1   --> A_1  D_1  S_1  
     e( 18 - 18) =     10.58635  eV     1   --> B_2  D_4  S_4  
     e( 19 - 19) =     12.75950  eV     1   --> A_1  D_1  S_1  
     e( 20 - 20) =     15.18619  eV     1   --> B_2  D_4  S_4  

 **************************************************************************

 **************************************************************************

                    xk=(   0.01667,   0.00962,   0.00000  )

     Band symmetry, C_2v (mm2)  point group:

     e(  1 -  1) =    -23.82004  eV     1   --> A_1  D_1  S_1  
     e(  2 -  2) =    -11.89704  eV     1   --> B_2  D_4  S_4  
     e(  3 -  3) =     -7.30483  eV     1   --> A_1  D_1  S_1  
     e(  4 -  4) =     -7.29212  eV     1   --> B_1  D_3  S_3  
     e(  5 -  5) =     -0.96549  eV     1   --> A_1  D_1  S_1  
     e(  6 -  6) =     -0.15602  eV     1   --> B_2  D_4  S_4  
     e(  7 -  7) =      0.82382  eV     1   --> A_1  D_1  S_1  
     e(  8 -  8) =      1.24328  eV     1   --> B_2  D_4  S_4  
     e(  9 -  9) =      2.75372  eV     1   --> A_1  D_1  S_1  
     e( 10 - 10) =      3.53851  eV     1   --> B_2  D_4  S_4  
     e( 11 - 11) =      4.17447  eV     1   --> A_1  D_1  S_1  
     e( 12 - 12) =      4.19934  eV     1   --> B_1  D_3  S_3  
     e( 13 - 13) =      5.45814  eV     1   --> A_1  D_1  S_1  
     e( 14 - 14) =      6.67230  eV     1   --> B_2  D_4  S_4  
     e( 15 - 15) =      7.33227  eV     1   --> B_2  D_4  S_4  
     e( 16 - 16) =      8.52668  eV     1   --> A_1  D_1  S_1  
     e( 17 - 17) =      8.80435  eV     1   --> A_1  D_1  S_1  
     e( 18 - 18) =     10.56075  eV     1   --> B_2  D_4  S_4  
     e( 19 - 19) =     12.73236  eV     1   --> A_1  D_1  S_1  
     e( 20 - 20) =     15.16316  eV     1   --> B_2  D_4  S_4  

 **************************************************************************

 **************************************************************************

                    xk=(   0.00000,   0.00000,   0.00000  )

     point group D_6h(6/mmm)
     there are 12 classes
     the character table:

       E     2C6   2C3   C2    3C2'  3C2'' i     2S3   2S6   s_h   3s_d  3s_v 
A_1g   1.00  1.00  1.00  1.00  1.00  1.00  1.00  1.00  1.00  1.00  1.00  1.00
A_2g   1.00  1.00  1.00  1.00 -1.00 -1.00  1.00  1.00  1.00  1.00 -1.00 -1.00
B_1g   1.00 -1.00  1.00 -1.00  1.00 -1.00  1.00 -1.00  1.00 -1.00  1.00 -1.00
B_2g   1.00 -1.00  1.00 -1.00 -1.00  1.00  1.00 -1.00  1.00 -1.00 -1.00  1.00
E_1g   2.00  1.00 -1.00 -2.00  0.00  0.00  2.00  1.00 -1.00 -2.00  0.00  0.00
E_2g   2.00 -1.00 -1.00  2.00  0.00  0.00  2.00 -1.00 -1.00  2.00  0.00  0.00
A_1u   1.00  1.00  1.00  1.00  1.00  1.00 -1.00 -1.00 -1.00 -1.00 -1.00 -1.00
A_2u   1.00  1.00  1.00  1.00 -1.00 -1.00 -1.00 -1.00 -1.00 -1.00  1.00  1.00
B_1u   1.00 -1.00  1.00 -1.00  1.00 -1.00 -1.00  1.00 -1.00  1.00 -1.00  1.00
B_2u   1.00 -1.00  1.00 -1.00 -1.00  1.00 -1.00  1.00 -1.00  1.00  1.00 -1.00
E_1u   2.00  1.00 -1.00 -2.00  0.00  0.00 -2.00 -1.00  1.00  2.00  0.00  0.00
E_2u   2.00 -1.00 -1.00  2.00  0.00  0.00 -2.00  1.00  1.00 -2.00  0.00  0.00

     the symmetry operations in each class and the name of the first element:

     E        1
                                                                 
     2C6      5    6
                                                                 
     2C3      7    8
                                                                 
     C2       2
                                                                 
     3C2'     4   12   11
                                                                 
     3C2''    3    9   10
                                                                 
     i       13
                                                                 
     2S3     17   18
                                                                 
     2S6     19   20
                                                                 
     s_h     14
                                                                 
     3s_d    16   24   23
                                                                 
     3s_v    15   21   22
                                                                 

     Band symmetry, D_6h(6/mmm) point group:

     e(  1 -  1) =    -23.82666  eV     1   --> A_1g           
     e(  2 -  2) =    -11.90497  eV     1   --> A_2u           
     e(  3 -  4) =     -7.27747  eV     2   --> E_2g           
     e(  5 -  5) =     -0.97446  eV     1   --> A_1g           
     e(  6 -  6) =     -0.16511  eV     1   --> A_2u           
     e(  7 -  7) =      0.81467  eV     1   --> A_1g           
     e(  8 -  8) =      1.23416  eV     1   --> A_2u           
     e(  9 -  9) =      2.74475  eV     1   --> A_1g           
     e( 10 - 10) =      3.52949  eV     1   --> A_2u           
     e( 11 - 12) =      4.17022  eV     2   --> E_1u           
     e( 13 - 13) =      5.44884  eV     1   --> A_1g           
     e( 14 - 14) =      6.66345  eV     1   --> A_2u           
     e( 15 - 15) =      7.35582  eV     1   --> B_1g           
     e( 16 - 16) =      8.51544  eV     1   --> B_2u           
     e( 17 - 17) =      8.79523  eV     1   --> A_1g           
     e( 18 - 18) =     10.55222  eV     1   --> A_2u           
     e( 19 - 19) =     12.72331  eV     1   --> A_1g           
     e( 20 - 20) =     15.15546  eV     1   --> A_2u           

 **************************************************************************

     BANDS        :     33.69s CPU     36.36s WALL


   This run was terminated on:  11:55: 9  26Feb2026            

=------------------------------------------------------------------------------=
   JOB DONE.
=------------------------------------------------------------------------------=
