
     Program PWSCF v.7.4.1 starts on 26Feb2026 at 11:53:30 

     This program is part of the open-source Quantum ESPRESSO suite
     for quantum simulation of materials; please cite
         "P. Giannozzi et al., J. Phys.:Condens. Matter 21 395502 (2009);
         "P. Giannozzi et al., J. Phys.:Condens. Matter 29 465901 (2017);
         "P. Giannozzi et al., J. Chem. Phys. 152 154105 (2020);
          URL http://www.quantum-espresso.org", 
     in publications or presentations arising from this work. More details at
     http://www.quantum-espresso.org/quote

     Parallel version (MPI), running on   128 processors

     MPI processes distributed on     1 nodes
     226935 MiB available memory on the printing compute node when the environment starts

     Waiting for input...
     Reading input from standard input

     Current dimensions of program PWSCF are:
     Max number of different atomic species (ntypx) = 10
     Max number of k-points (npk) =  40000
     Max angular momentum in pseudopotentials (lmaxx) =  4

     R & G space division:  proc/nbgrp/npool/nimage =     128
     Subspace diagonalization in iterative solution of the eigenvalue problem:
     a serial algorithm will be used


     Parallelization info
     --------------------
     sticks:   dense  smooth     PW     G-vecs:    dense   smooth      PW
     Min           6       6      1                 1308     1308     157
     Max           7       7      2                 1397     1397     228
     Sum         889     889    253               174787   174787   27099

     Using Slab Decomposition



     bravais-lattice index     =            4
     lattice parameter (alat)  =       4.6412  a.u.
     unit-cell volume          =     705.0403 (a.u.)^3
     number of atoms/cell      =            2
     number of atomic types    =            1
     number of electrons       =         8.00
     number of Kohn-Sham states=            8
     kinetic-energy cutoff     =     150.0000  Ry
     charge density cutoff     =     600.0000  Ry
     scf convergence threshold =      1.0E-08
     mixing beta               =       0.7000
     number of iterations used =            8  plain     mixing
     Exchange-correlation= SLA-PW-PBX-PBC
                           (   1   4   3   4   0   0   0)

     celldm(1)=   4.641167  celldm(2)=   0.000000  celldm(3)=   8.143322
     celldm(4)=   0.000000  celldm(5)=   0.000000  celldm(6)=   0.000000

     crystal axes: (cart. coord. in units of alat)
               a(1) = (   1.000000   0.000000   0.000000 )  
               a(2) = (  -0.500000   0.866025   0.000000 )  
               a(3) = (   0.000000   0.000000   8.143322 )  

     reciprocal axes: (cart. coord. in units 2 pi/alat)
               b(1) = (  1.000000  0.577350 -0.000000 )  
               b(2) = (  0.000000  1.154701  0.000000 )  
               b(3) = (  0.000000 -0.000000  0.122800 )  


     PseudoPot. # 1 for C  read from file:
     ./C.pbe-hgh.UPF
     MD5 check sum: ca26ff84b356733038fc2f5c468d1892
     Pseudo is Norm-conserving, Zval =  4.0
     Generated in analytical, separable form
     Using radial grid of 1073 points,  1 beta functions with: 
                l(1) =   0

     atomic species   valence    mass     pseudopotential
     C                 4.00    12.01070     C ( 1.00)

     24 Sym. Ops., with inversion, found



   Cartesian axes

     site n.     atom                  positions (alat units)
         1        C      tau(   1) = (   0.0000000   0.5773503   0.0000000  )
         2        C      tau(   2) = (   0.5000000   0.2886751   0.0000000  )

     number of k points=   217  Gaussian smearing, width (Ry)=  0.0019

     Number of k-points >= 100: set verbosity='high' to print them.

     Dense  grid:   174787 G-vectors     FFT dimensions: (  40,  40, 300)

     Estimated max dynamical RAM per process >       5.53 MB

     Estimated total dynamical RAM >     707.94 MB
 ----2D----2D----2D----2D----2D----2D----2D----2D----2D----2D----2D----2D
  The code is running with the 2D cutoff
  Please refer to:
  Sohier, T., Calandra, M., & Mauri, F. (2017), 
  Density functional perturbation theory for gated two-dimensional heterostructures:
  Theoretical developments and application to flexural phonons in graphene.
  Physical Review B, 96(7), 75448. https://doi.org/10.1103/PhysRevB.96.075448
 ----2D----2D----2D----2D----2D----2D----2D----2D----2D----2D----2D----2D

     Initial potential from superposition of free atoms

     starting charge       7.9999, renormalised to       8.0000

     negative rho (up, down):  1.971E-05 0.000E+00
     Starting wfcs are    8 randomized atomic wfcs

     total cpu time spent up to now is        0.8 secs

     Self-consistent Calculation

     iteration #  1     ecut=   150.00 Ry     beta= 0.70
     Davidson diagonalization with overlap
     ethr =  1.00E-02,  avg # of iterations =  5.9

     negative rho (up, down):  2.669E-07 0.000E+00

     total cpu time spent up to now is        4.0 secs

     total energy              =     -22.76392903 Ry
     estimated scf accuracy    <       0.20182307 Ry

     iteration #  2     ecut=   150.00 Ry     beta= 0.70
     Davidson diagonalization with overlap
     ethr =  2.52E-03,  avg # of iterations =  4.0

     negative rho (up, down):  1.292E-08 0.000E+00

     total cpu time spent up to now is        6.1 secs

     total energy              =     -22.79160057 Ry
     estimated scf accuracy    <       0.00187270 Ry

     iteration #  3     ecut=   150.00 Ry     beta= 0.70
     Davidson diagonalization with overlap
     c_bands:  1 eigenvalues not converged
     c_bands:  1 eigenvalues not converged
     c_bands:  1 eigenvalues not converged
     c_bands:  1 eigenvalues not converged
     c_bands:  1 eigenvalues not converged
     c_bands:  1 eigenvalues not converged
     ethr =  2.34E-05,  avg # of iterations = 11.4

     total cpu time spent up to now is       12.8 secs

     total energy              =     -22.79206940 Ry
     estimated scf accuracy    <       0.00014844 Ry

     iteration #  4     ecut=   150.00 Ry     beta= 0.70
     Davidson diagonalization with overlap
     c_bands:  1 eigenvalues not converged
     c_bands:  1 eigenvalues not converged
     c_bands:  1 eigenvalues not converged
     c_bands:  1 eigenvalues not converged
     c_bands:  1 eigenvalues not converged
     c_bands:  1 eigenvalues not converged
     ethr =  1.86E-06,  avg # of iterations =  5.2

     total cpu time spent up to now is       15.3 secs

     total energy              =     -22.79208723 Ry
     estimated scf accuracy    <       0.00000312 Ry

     iteration #  5     ecut=   150.00 Ry     beta= 0.70
     Davidson diagonalization with overlap
     ethr =  3.90E-08,  avg # of iterations =  3.5

     negative rho (up, down):  1.405E-08 0.000E+00

     total cpu time spent up to now is       17.8 secs

     total energy              =     -22.79208910 Ry
     estimated scf accuracy    <       0.00000009 Ry

     iteration #  6     ecut=   150.00 Ry     beta= 0.70
     Davidson diagonalization with overlap
     ethr =  1.10E-09,  avg # of iterations =  3.0

     total cpu time spent up to now is       19.8 secs

     End of self-consistent calculation

     Number of k-points >= 100: set verbosity='high' to print the bands.

     the Fermi energy is    -4.2073 ev

!    total energy              =     -22.79208914 Ry
     estimated scf accuracy    <          6.2E-10 Ry
     smearing contrib. (-TS)   =      -0.00000186 Ry
     internal energy E=F+TS    =     -22.79208728 Ry

     The total energy is F=E-TS. E is the sum of the following terms:
     one-electron contribution =    -360.78373531 Ry
     hartree contribution      =     181.02461990 Ry
     xc contribution           =      -7.02663669 Ry
     ewald contribution        =     163.99366482 Ry

     convergence has been achieved in   6 iterations

     Writing all to output data dir ./out/gr_300K.save/ :
     XML data file, charge density, pseudopotentials, collected wavefunctions

     init_run     :      0.64s CPU      0.71s WALL (       1 calls)
     electrons    :     18.53s CPU     19.10s WALL (       1 calls)

     Called by init_run:
     wfcinit      :      0.59s CPU      0.62s WALL (       1 calls)
     potinit      :      0.01s CPU      0.01s WALL (       1 calls)
     hinit0       :      0.00s CPU      0.01s WALL (       1 calls)

     Called by electrons:
     c_bands      :     16.63s CPU     17.10s WALL (       6 calls)
     sum_band     :      1.86s CPU      1.92s WALL (       6 calls)
     v_of_rho     :      0.03s CPU      0.04s WALL (       7 calls)
     mix_rho      :      0.00s CPU      0.01s WALL (       6 calls)

     Called by c_bands:
     init_us_2    :      0.02s CPU      0.02s WALL (    2821 calls)
     cegterg      :     16.55s CPU     17.00s WALL (    1302 calls)

     Called by *egterg:
     cdiaghg      :      0.52s CPU      0.54s WALL (    8489 calls)
     h_psi        :     14.54s CPU     14.94s WALL (    8706 calls)
     g_psi        :      0.02s CPU      0.02s WALL (    7187 calls)

     Called by h_psi:
     h_psi:calbec :      0.94s CPU      0.96s WALL (    8706 calls)
     vloc_psi     :     13.53s CPU     13.91s WALL (    8706 calls)
     add_vuspsi   :      0.02s CPU      0.02s WALL (    8706 calls)

     General routines
     calbec       :      0.93s CPU      0.95s WALL (    8706 calls)
     fft          :      0.02s CPU      0.03s WALL (      69 calls)
     ffts         :      0.00s CPU      0.00s WALL (       6 calls)
     fftw         :     14.91s CPU     15.34s WALL (   84588 calls)

     Parallel routines

     PWSCF        :     20.98s CPU     22.51s WALL


   This run was terminated on:  11:53:52  26Feb2026            

=------------------------------------------------------------------------------=
   JOB DONE.
=------------------------------------------------------------------------------=
